Variables="X","Y","Z","GAMMA"
ZONE T="WING" i=6,j=51,k=1, ZONETYPE=Ordered
DATAPACKING=BLOCK
VARLOCATION=([4]=CELLCENTERED)
0.000000 0.200000 0.400000 0.600000 0.800000 1.000000 0.000245 0.200147 0.400049 0.599951 0.799853 0.999755 0.000982 0.200589 0.400196 0.599804 0.799411 0.999018 0.002208 0.201325 0.400442 0.599558 0.798675 0.997792 0.003923 0.202354 0.400785 0.599215 0.797646 0.996077 0.006125 0.203675 0.401225 0.598775 0.796325 0.993875 0.008812 0.205287 0.401762 0.598238 0.794713 0.991188 0.011981 0.207188 0.402396 0.597604 0.792812 0.988019 0.015629 0.209377 0.403126 0.596874 0.790623 0.984371 0.019752 0.211851 0.403950 0.596050 0.788149 0.980248 0.024346 0.214608 0.404869 0.595131 0.785392 0.975654 0.029407 0.217644 0.405881 0.594119 0.782356 0.970593 0.034930 0.220958 0.406986 0.593014 0.779042 0.965070 0.040908 0.224545 0.408182 0.591818 0.775455 0.959092 0.047336 0.228402 0.409467 0.590533 0.771598 0.952664 0.054208 0.232525 0.410842 0.589158 0.767475 0.945792 0.061516 0.236909 0.412303 0.587697 0.763091 0.938484 0.069253 0.241552 0.413851 0.586149 0.758448 0.930747 0.077411 0.246447 0.415482 0.584518 0.753553 0.922589 0.085982 0.251589 0.417196 0.582804 0.748411 0.914018 0.094958 0.256975 0.418992 0.581008 0.743025 0.905042 0.104329 0.262597 0.420866 0.579134 0.737403 0.895671 0.114085 0.268451 0.422817 0.577183 0.731549 0.885915 0.124216 0.274530 0.424843 0.575157 0.725470 0.875784 0.134713 0.280828 0.426943 0.573057 0.719172 0.865287 0.145564 0.287338 0.429113 0.570887 0.712662 0.854436 0.156757 0.294054 0.431351 0.568649 0.705946 0.843243 0.168282 0.300969 0.433656 0.566344 0.699031 0.831718 0.180126 0.308076 0.436025 0.563975 0.691924 0.819874 0.192276 0.315365 0.438455 0.561545 0.684635 0.807724 0.204719 0.322831 0.440944 0.559056 0.677169 0.795281 0.217441 0.330465 0.443488 0.556512 0.669535 0.782559 0.230429 0.338257 0.446086 0.553914 0.661743 0.769571 0.243666 0.346200 0.448733 0.551267 0.653800 0.756334 0.257139 0.354283 0.451428 0.548572 0.645717 0.742861 0.270829 0.362498 0.454166 0.545834 0.637502 0.729171 0.284720 0.370832 0.456944 0.543056 0.629168 0.715280 0.298793 0.379276 0.459759 0.540241 0.620724 0.701207 0.313025 0.387815 0.462605 0.537395 0.612185 0.686975 0.327395 0.396437 0.465479 0.534521 0.603563 0.672605 0.341875 0.405125 0.468375 0.531625 0.594875 0.658125 0.356432 0.413859 0.471286 0.528714 0.586141 0.643568 0.371026 0.422615 0.474205 0.525795 0.577385 0.628974 0.385601 0.431361 0.477120 0.522880 0.568639 0.614399 0.400080 0.440048 0.480016 0.519984 0.559952 0.599920 0.414342 0.448605 0.482868 0.517132 0.551395 0.585658 0.428184 0.456911 0.485637 0.514363 0.543089 0.571816 0.441238 0.464743 0.488248 0.511752 0.535257 0.558762 0.452769 0.471662 0.490554 0.509446 0.528338 0.547231 0.461329 0.476798 0.492266 0.507734 0.523202 0.538671 0.464645 0.478787 0.492929 0.507071 0.521213 0.535355
-0.000000 -0.000000 -0.000000 -0.000000 -0.000000 -0.000000 0.062822 0.062822 0.062822 0.062822 0.062822 0.062822 0.125581 0.125581 0.125581 0.125581 0.125581 0.125581 0.188217 0.188217 0.188217 0.188217 0.188217 0.188217 0.250666 0.250666 0.250666 0.250666 0.250666 0.250666 0.312869 0.312869 0.312869 0.312869 0.312869 0.312869 0.374763 0.374763 0.374763 0.374763 0.374763 0.374763 0.436286 0.436286 0.436286 0.436286 0.436286 0.436286 0.497380 0.497380 0.497380 0.497380 0.497380 0.497380 0.557982 0.557982 0.557982 0.557982 0.557982 0.557982 0.618034 0.618034 0.618034 0.618034 0.618034 0.618034 0.677476 0.677476 0.677476 0.677476 0.677476 0.677476 0.736249 0.736249 0.736249 0.736249 0.736249 0.736249 0.794296 0.794296 0.794296 0.794296 0.794296 0.794296 0.851559 0.851559 0.851559 0.851559 0.851559 0.851559 0.907981 0.907981 0.907981 0.907981 0.907981 0.907981 0.963507 0.963507 0.963507 0.963507 0.963507 0.963507 1.018083 1.018083 1.018083 1.018083 1.018083 1.018083 1.071654 1.071654 1.071654 1.071654 1.071654 1.071654 1.124167 1.124167 1.124167 1.124167 1.124167 1.124167 1.175571 1.175571 1.175571 1.175571 1.175571 1.175571 1.225814 1.225814 1.225814 1.225814 1.225814 1.225814 1.274848 1.274848 1.274848 1.274848 1.274848 1.274848 1.322624 1.322624 1.322624 1.322624 1.322624 1.322624 1.369094 1.369094 1.369094 1.369094 1.369094 1.369094 1.414214 1.414214 1.414214 1.414214 1.414214 1.414214 1.457937 1.457937 1.457937 1.457937 1.457937 1.457937 1.500222 1.500222 1.500222 1.500222 1.500222 1.500222 1.541026 1.541026 1.541026 1.541026 1.541026 1.541026 1.580310 1.580310 1.580310 1.580310 1.580310 1.580310 1.618034 1.618034 1.618034 1.618034 1.618034 1.618034 1.654161 1.654161 1.654161 1.654161 1.654161 1.654161 1.688656 1.688656 1.688656 1.688656 1.688656 1.688656 1.721484 1.721484 1.721484 1.721484 1.721484 1.721484 1.752613 1.752613 1.752613 1.752613 1.752613 1.752613 1.782013 1.782013 1.782013 1.782013 1.782013 1.782013 1.809654 1.809654 1.809654 1.809654 1.809654 1.809654 1.835509 1.835509 1.835509 1.835509 1.835509 1.835509 1.859553 1.859553 1.859553 1.859553 1.859553 1.859553 1.881762 1.881762 1.881762 1.881762 1.881762 1.881762 1.902113 1.902113 1.902113 1.902113 1.902113 1.902113 1.920587 1.920587 1.920587 1.920587 1.920587 1.920587 1.937166 1.937166 1.937166 1.937166 1.937166 1.937166 1.951834 1.951834 1.951834 1.951834 1.951834 1.951834 1.964575 1.964575 1.964575 1.964575 1.964575 1.964575 1.975377 1.975377 1.975377 1.975377 1.975377 1.975377 1.984229 1.984229 1.984229 1.984229 1.984229 1.984229 1.991124 1.991124 1.991124 1.991124 1.991124 1.991124 1.996053 1.996053 1.996053 1.996053 1.996053 1.996053 1.999013 1.999013 1.999013 1.999013 1.999013 1.999013 2.000000 2.000000 2.000000 2.000000 2.000000 2.000000
0.000000 0.000000 0.000000 0.000000 0.000000 0.000000 0.000000 0.000000 0.000000 0.000000 0.000000 0.000000 0.000000 0.000000 0.000000 0.000000 0.000000 0.000000 0.000000 0.000000 0.000000 0.000000 0.000000 0.000000 0.000000 0.000000 0.000000 0.000000 0.000000 0.000000 0.000000 0.000000 0.000000 0.000000 0.000000 0.000000 0.000000 0.000000 0.000000 0.000000 0.000000 0.000000 0.000000 0.000000 0.000000 0.000000 0.000000 0.000000 0.000000 0.000000 0.000000 0.000000 0.000000 0.000000 0.000000 0.000000 0.000000 0.000000 0.000000 0.000000 0.000000 0.000000 0.000000 0.000000 0.000000 0.000000 0.000000 0.000000 0.000000 0.000000 0.000000 0.000000 0.000000 0.000000 0.000000 0.000000 0.000000 0.000000 0.000000 0.000000 0.000000 0.000000 0.000000 0.000000 0.000000 0.000000 0.000000 0.000000 0.000000 0.000000 0.000000 0.000000 0.000000 0.000000 0.000000 0.000000 0.000000 0.000000 0.000000 0.000000 0.000000 0.000000 0.000000 0.000000 0.000000 0.000000 0.000000 0.000000 0.000000 0.000000 0.000000 0.000000 0.000000 0.000000 0.000000 0.000000 0.000000 0.000000 0.000000 0.000000 0.000000 0.000000 0.000000 0.000000 0.000000 0.000000 0.000000 0.000000 0.000000 0.000000 0.000000 0.000000 0.000000 0.000000 0.000000 0.000000 0.000000 0.000000 0.000000 0.000000 0.000000 0.000000 0.000000 0.000000 0.000000 0.000000 0.000000 0.000000 0.000000 0.000000 0.000000 0.000000 0.000000 0.000000 0.000000 0.000000 0.000000 0.000000 0.000000 0.000000 0.000000 0.000000 0.000000 0.000000 0.000000 0.000000 0.000000 0.000000 0.000000 0.000000 0.000000 0.000000 0.000000 0.000000 0.000000 0.000000 0.000000 0.000000 0.000000 0.000000 0.000000 0.000000 0.000000 0.000000 0.000000 0.000000 0.000000 0.000000 0.000000 0.000000 0.000000 0.000000 0.000000 0.000000 0.000000 0.000000 0.000000 0.000000 0.000000 0.000000 0.000000 0.000000 0.000000 0.000000 0.000000 0.000000 0.000000 0.000000 0.000000 0.000000 0.000000 0.000000 0.000000 0.000000 0.000000 0.000000 0.000000 0.000000 0.000000 0.000000 0.000000 0.000000 0.000000 0.000000 0.000000 0.000000 0.000000 0.000000 0.000000 0.000000 0.000000 0.000000 0.000000 0.000000 0.000000 0.000000 0.000000 0.000000 0.000000 0.000000 0.000000 0.000000 0.000000 0.000000 0.000000 0.000000 0.000000 0.000000 0.000000 0.000000 0.000000 0.000000 0.000000 0.000000 0.000000 0.000000 0.000000 0.000000 0.000000 0.000000 0.000000 0.000000 0.000000 0.000000 0.000000 0.000000 0.000000 0.000000 0.000000 0.000000 0.000000 0.000000 0.000000 0.000000 0.000000 0.000000 0.000000 0.000000 0.000000 0.000000 0.000000 0.000000 0.000000 0.000000 0.000000 0.000000 0.000000 0.000000 0.000000 0.000000 0.000000 0.000000 0.000000 0.000000 0.000000 0.000000 0.000000 0.000000 0.000000 0.000000 0.000000 0.000000 0.000000 0.000000 0.000000 0.000000
0.046040 0.065973 0.078466 0.086587 0.091209 0.045996 0.065909 0.078389 0.086502 0.091118 0.045907 0.065781 0.078235 0.086330 0.090937 0.045774 0.065588 0.078005 0.086074 0.090665 0.045597 0.065332 0.077698 0.085733 0.090304 0.045376 0.065013 0.077314 0.085307 0.089852 0.045111 0.064630 0.076855 0.084796 0.089312 0.044802 0.064185 0.076321 0.084202 0.088682 0.044451 0.063677 0.075712 0.083525 0.087965 0.044056 0.063108 0.075029 0.082765 0.087160 0.043620 0.062477 0.074272 0.081924 0.086268 0.043141 0.061786 0.073443 0.081001 0.085291 0.042621 0.061034 0.072542 0.079999 0.084230 0.042060 0.060224 0.071570 0.078918 0.083085 0.041458 0.059356 0.070528 0.077760 0.081857 0.040817 0.058430 0.069418 0.076524 0.080548 0.040137 0.057448 0.068240 0.075214 0.079160 0.039419 0.056410 0.066995 0.073829 0.077693 0.038663 0.055319 0.065685 0.072373 0.076150 0.037870 0.054174 0.064312 0.070845 0.074531 0.037041 0.052977 0.062876 0.069247 0.072839 0.036177 0.051730 0.061379 0.067583 0.071075 0.035279 0.050433 0.059824 0.065852 0.069241 0.034347 0.049088 0.058210 0.064057 0.067339 0.033383 0.047697 0.056541 0.062199 0.065371 0.032388 0.046260 0.054817 0.060282 0.063339 0.031362 0.044780 0.053042 0.058306 0.061246 0.030308 0.043258 0.051216 0.056274 0.059093 0.029225 0.041696 0.049341 0.054189 0.056884 0.028115 0.040095 0.047421 0.052051 0.054619 0.026979 0.038457 0.045456 0.049865 0.052303 0.025818 0.036785 0.043449 0.047632 0.049938 0.024634 0.035079 0.041402 0.045354 0.047525 0.023428 0.033341 0.039318 0.043035 0.045069 0.022201 0.031575 0.037200 0.040677 0.042573 0.020954 0.029781 0.035048 0.038283 0.040038 0.019689 0.027962 0.032867 0.035856 0.037470 0.018407 0.026120 0.030658 0.033399 0.034870 0.017110 0.024258 0.028424 0.030915 0.032243 0.015799 0.022378 0.026169 0.028407 0.029594 0.014477 0.020482 0.023894 0.025878 0.026925 0.013145 0.018575 0.021603 0.023333 0.024241 0.011808 0.016658 0.019297 0.020776 0.021548 0.010470 0.014736 0.016979 0.018209 0.018852 0.009138 0.012810 0.014649 0.015639 0.016158 0.007823 0.010878 0.012307 0.013069 0.013474 0.006543 0.008927 0.009953 0.010508 0.010810 0.005305 0.006923 0.007590 0.007967 0.008178 0.004014 0.004844 0.005237 0.005470 0.005604 0.002412 0.002822 0.003034 0.003162 0.003237 