Variables="X","Y","Z","GAMMA"
ZONE T="WING" i=6,j=51,k=1, ZONETYPE=Ordered
DATAPACKING=BLOCK
VARLOCATION=([4]=CELLCENTERED)
0.000000 0.200000 0.400000 0.600000 0.800000 1.000000 0.000245 0.200147 0.400049 0.599951 0.799853 0.999755 0.000982 0.200589 0.400196 0.599804 0.799411 0.999018 0.002208 0.201325 0.400442 0.599558 0.798675 0.997792 0.003923 0.202354 0.400785 0.599215 0.797646 0.996077 0.006125 0.203675 0.401225 0.598775 0.796325 0.993875 0.008812 0.205287 0.401762 0.598238 0.794713 0.991188 0.011981 0.207188 0.402396 0.597604 0.792812 0.988019 0.015629 0.209377 0.403126 0.596874 0.790623 0.984371 0.019752 0.211851 0.403950 0.596050 0.788149 0.980248 0.024346 0.214608 0.404869 0.595131 0.785392 0.975654 0.029407 0.217644 0.405881 0.594119 0.782356 0.970593 0.034930 0.220958 0.406986 0.593014 0.779042 0.965070 0.040908 0.224545 0.408182 0.591818 0.775455 0.959092 0.047336 0.228402 0.409467 0.590533 0.771598 0.952664 0.054208 0.232525 0.410842 0.589158 0.767475 0.945792 0.061516 0.236909 0.412303 0.587697 0.763091 0.938484 0.069253 0.241552 0.413851 0.586149 0.758448 0.930747 0.077411 0.246447 0.415482 0.584518 0.753553 0.922589 0.085982 0.251589 0.417196 0.582804 0.748411 0.914018 0.094958 0.256975 0.418992 0.581008 0.743025 0.905042 0.104329 0.262597 0.420866 0.579134 0.737403 0.895671 0.114085 0.268451 0.422817 0.577183 0.731549 0.885915 0.124216 0.274530 0.424843 0.575157 0.725470 0.875784 0.134713 0.280828 0.426943 0.573057 0.719172 0.865287 0.145564 0.287338 0.429113 0.570887 0.712662 0.854436 0.156757 0.294054 0.431351 0.568649 0.705946 0.843243 0.168282 0.300969 0.433656 0.566344 0.699031 0.831718 0.180126 0.308076 0.436025 0.563975 0.691924 0.819874 0.192276 0.315365 0.438455 0.561545 0.684635 0.807724 0.204719 0.322831 0.440944 0.559056 0.677169 0.795281 0.217441 0.330465 0.443488 0.556512 0.669535 0.782559 0.230429 0.338257 0.446086 0.553914 0.661743 0.769571 0.243666 0.346200 0.448733 0.551267 0.653800 0.756334 0.257139 0.354283 0.451428 0.548572 0.645717 0.742861 0.270829 0.362498 0.454166 0.545834 0.637502 0.729171 0.284720 0.370832 0.456944 0.543056 0.629168 0.715280 0.298793 0.379276 0.459759 0.540241 0.620724 0.701207 0.313025 0.387815 0.462605 0.537395 0.612185 0.686975 0.327395 0.396437 0.465479 0.534521 0.603563 0.672605 0.341875 0.405125 0.468375 0.531625 0.594875 0.658125 0.356432 0.413859 0.471286 0.528714 0.586141 0.643568 0.371026 0.422615 0.474205 0.525795 0.577385 0.628974 0.385601 0.431361 0.477120 0.522880 0.568639 0.614399 0.400080 0.440048 0.480016 0.519984 0.559952 0.599920 0.414342 0.448605 0.482868 0.517132 0.551395 0.585658 0.428184 0.456911 0.485637 0.514363 0.543089 0.571816 0.441238 0.464743 0.488248 0.511752 0.535257 0.558762 0.452769 0.471662 0.490554 0.509446 0.528338 0.547231 0.461329 0.476798 0.492266 0.507734 0.523202 0.538671 0.464645 0.478787 0.492929 0.507071 0.521213 0.535355
-0.000000 -0.000000 -0.000000 -0.000000 -0.000000 -0.000000 0.157054 0.157054 0.157054 0.157054 0.157054 0.157054 0.313953 0.313953 0.313953 0.313953 0.313953 0.313953 0.470542 0.470542 0.470542 0.470542 0.470542 0.470542 0.626666 0.626666 0.626666 0.626666 0.626666 0.626666 0.782172 0.782172 0.782172 0.782172 0.782172 0.782172 0.936907 0.936907 0.936907 0.936907 0.936907 0.936907 1.090716 1.090716 1.090716 1.090716 1.090716 1.090716 1.243449 1.243449 1.243449 1.243449 1.243449 1.243449 1.394956 1.394956 1.394956 1.394956 1.394956 1.394956 1.545085 1.545085 1.545085 1.545085 1.545085 1.545085 1.693690 1.693690 1.693690 1.693690 1.693690 1.693690 1.840623 1.840623 1.840623 1.840623 1.840623 1.840623 1.985739 1.985739 1.985739 1.985739 1.985739 1.985739 2.128896 2.128896 2.128896 2.128896 2.128896 2.128896 2.269952 2.269952 2.269952 2.269952 2.269952 2.269952 2.408768 2.408768 2.408768 2.408768 2.408768 2.408768 2.545207 2.545207 2.545207 2.545207 2.545207 2.545207 2.679134 2.679134 2.679134 2.679134 2.679134 2.679134 2.810417 2.810417 2.810417 2.810417 2.810417 2.810417 2.938926 2.938926 2.938926 2.938926 2.938926 2.938926 3.064535 3.064535 3.064535 3.064535 3.064535 3.064535 3.187120 3.187120 3.187120 3.187120 3.187120 3.187120 3.306559 3.306559 3.306559 3.306559 3.306559 3.306559 3.422736 3.422736 3.422736 3.422736 3.422736 3.422736 3.535534 3.535534 3.535534 3.535534 3.535534 3.535534 3.644843 3.644843 3.644843 3.644843 3.644843 3.644843 3.750555 3.750555 3.750555 3.750555 3.750555 3.750555 3.852566 3.852566 3.852566 3.852566 3.852566 3.852566 3.950775 3.950775 3.950775 3.950775 3.950775 3.950775 4.045085 4.045085 4.045085 4.045085 4.045085 4.045085 4.135403 4.135403 4.135403 4.135403 4.135403 4.135403 4.221640 4.221640 4.221640 4.221640 4.221640 4.221640 4.303710 4.303710 4.303710 4.303710 4.303710 4.303710 4.381533 4.381533 4.381533 4.381533 4.381533 4.381533 4.455033 4.455033 4.455033 4.455033 4.455033 4.455033 4.524135 4.524135 4.524135 4.524135 4.524135 4.524135 4.588773 4.588773 4.588773 4.588773 4.588773 4.588773 4.648882 4.648882 4.648882 4.648882 4.648882 4.648882 4.704404 4.704404 4.704404 4.704404 4.704404 4.704404 4.755283 4.755283 4.755283 4.755283 4.755283 4.755283 4.801468 4.801468 4.801468 4.801468 4.801468 4.801468 4.842916 4.842916 4.842916 4.842916 4.842916 4.842916 4.879584 4.879584 4.879584 4.879584 4.879584 4.879584 4.911436 4.911436 4.911436 4.911436 4.911436 4.911436 4.938442 4.938442 4.938442 4.938442 4.938442 4.938442 4.960574 4.960574 4.960574 4.960574 4.960574 4.960574 4.977810 4.977810 4.977810 4.977810 4.977810 4.977810 4.990134 4.990134 4.990134 4.990134 4.990134 4.990134 4.997533 4.997533 4.997533 4.997533 4.997533 4.997533 5.000000 5.000000 5.000000 5.000000 5.000000 5.000000
0.000000 0.000000 0.000000 0.000000 0.000000 0.000000 0.000000 0.000000 0.000000 0.000000 0.000000 0.000000 0.000000 0.000000 0.000000 0.000000 0.000000 0.000000 0.000000 0.000000 0.000000 0.000000 0.000000 0.000000 0.000000 0.000000 0.000000 0.000000 0.000000 0.000000 0.000000 0.000000 0.000000 0.000000 0.000000 0.000000 0.000000 0.000000 0.000000 0.000000 0.000000 0.000000 0.000000 0.000000 0.000000 0.000000 0.000000 0.000000 0.000000 0.000000 0.000000 0.000000 0.000000 0.000000 0.000000 0.000000 0.000000 0.000000 0.000000 0.000000 0.000000 0.000000 0.000000 0.000000 0.000000 0.000000 0.000000 0.000000 0.000000 0.000000 0.000000 0.000000 0.000000 0.000000 0.000000 0.000000 0.000000 0.000000 0.000000 0.000000 0.000000 0.000000 0.000000 0.000000 0.000000 0.000000 0.000000 0.000000 0.000000 0.000000 0.000000 0.000000 0.000000 0.000000 0.000000 0.000000 0.000000 0.000000 0.000000 0.000000 0.000000 0.000000 0.000000 0.000000 0.000000 0.000000 0.000000 0.000000 0.000000 0.000000 0.000000 0.000000 0.000000 0.000000 0.000000 0.000000 0.000000 0.000000 0.000000 0.000000 0.000000 0.000000 0.000000 0.000000 0.000000 0.000000 0.000000 0.000000 0.000000 0.000000 0.000000 0.000000 0.000000 0.000000 0.000000 0.000000 0.000000 0.000000 0.000000 0.000000 0.000000 0.000000 0.000000 0.000000 0.000000 0.000000 0.000000 0.000000 0.000000 0.000000 0.000000 0.000000 0.000000 0.000000 0.000000 0.000000 0.000000 0.000000 0.000000 0.000000 0.000000 0.000000 0.000000 0.000000 0.000000 0.000000 0.000000 0.000000 0.000000 0.000000 0.000000 0.000000 0.000000 0.000000 0.000000 0.000000 0.000000 0.000000 0.000000 0.000000 0.000000 0.000000 0.000000 0.000000 0.000000 0.000000 0.000000 0.000000 0.000000 0.000000 0.000000 0.000000 0.000000 0.000000 0.000000 0.000000 0.000000 0.000000 0.000000 0.000000 0.000000 0.000000 0.000000 0.000000 0.000000 0.000000 0.000000 0.000000 0.000000 0.000000 0.000000 0.000000 0.000000 0.000000 0.000000 0.000000 0.000000 0.000000 0.000000 0.000000 0.000000 0.000000 0.000000 0.000000 0.000000 0.000000 0.000000 0.000000 0.000000 0.000000 0.000000 0.000000 0.000000 0.000000 0.000000 0.000000 0.000000 0.000000 0.000000 0.000000 0.000000 0.000000 0.000000 0.000000 0.000000 0.000000 0.000000 0.000000 0.000000 0.000000 0.000000 0.000000 0.000000 0.000000 0.000000 0.000000 0.000000 0.000000 0.000000 0.000000 0.000000 0.000000 0.000000 0.000000 0.000000 0.000000 0.000000 0.000000 0.000000 0.000000 0.000000 0.000000 0.000000 0.000000 0.000000 0.000000 0.000000 0.000000 0.000000 0.000000 0.000000 0.000000 0.000000 0.000000 0.000000 0.000000 0.000000 0.000000 0.000000 0.000000 0.000000 0.000000 0.000000 0.000000 0.000000 0.000000 0.000000 0.000000 0.000000 0.000000 0.000000 0.000000 0.000000 0.000000 0.000000 0.000000
0.057437 0.082807 0.099023 0.109773 0.116009 0.057381 0.082726 0.098926 0.109665 0.115895 0.057269 0.082564 0.098732 0.109450 0.115667 0.057101 0.082322 0.098441 0.109126 0.115325 0.056877 0.081999 0.098054 0.108696 0.114870 0.056598 0.081595 0.097570 0.108159 0.114301 0.056264 0.081112 0.096991 0.107516 0.113621 0.055874 0.080549 0.096317 0.106767 0.112828 0.055431 0.079908 0.095548 0.105913 0.111924 0.054933 0.079189 0.094686 0.104956 0.110911 0.054382 0.078392 0.093731 0.103895 0.109788 0.053777 0.077519 0.092685 0.102732 0.108558 0.053121 0.076570 0.091548 0.101469 0.107221 0.052413 0.075547 0.090321 0.100106 0.105778 0.051653 0.074450 0.089006 0.098646 0.104232 0.050844 0.073280 0.087604 0.097088 0.102584 0.049985 0.072039 0.086117 0.095436 0.100835 0.049078 0.070728 0.084545 0.093690 0.098987 0.048124 0.069349 0.082891 0.091853 0.097042 0.047123 0.067902 0.081157 0.089926 0.095002 0.046076 0.066389 0.079344 0.087911 0.092869 0.044985 0.064812 0.077453 0.085811 0.090646 0.043851 0.063173 0.075488 0.083627 0.088334 0.042675 0.061473 0.073449 0.081362 0.085937 0.041458 0.059714 0.071340 0.079018 0.083455 0.040201 0.057897 0.069162 0.076598 0.080893 0.038907 0.056026 0.066918 0.074104 0.078252 0.037575 0.054101 0.064610 0.071539 0.075536 0.036209 0.052125 0.062240 0.068905 0.072747 0.034808 0.050100 0.059812 0.066206 0.069889 0.033376 0.048029 0.057327 0.063444 0.066964 0.031913 0.045913 0.054789 0.060622 0.063976 0.030420 0.043755 0.052200 0.057743 0.060927 0.028901 0.041558 0.049564 0.054812 0.057822 0.027357 0.039324 0.046883 0.051830 0.054664 0.025789 0.037056 0.044161 0.048802 0.051456 0.024200 0.034758 0.041401 0.045732 0.048202 0.022592 0.032431 0.038607 0.042622 0.044907 0.020968 0.030080 0.035783 0.039478 0.041574 0.019329 0.027707 0.032932 0.036303 0.038207 0.017679 0.025318 0.030059 0.033101 0.034813 0.016022 0.022917 0.027168 0.029878 0.031394 0.014361 0.020509 0.024265 0.026638 0.027957 0.012703 0.018100 0.021355 0.023386 0.024506 0.011055 0.015698 0.018442 0.020126 0.021049 0.009428 0.013309 0.015529 0.016864 0.017592 0.007839 0.010934 0.012610 0.013601 0.014146 0.006302 0.008543 0.009672 0.010345 0.010727 0.004758 0.006056 0.006712 0.007121 0.007367 0.002910 0.003553 0.003900 0.004122 0.004260 