Variables="X","Y","Z","GAMMA"
ZONE T="WING" i=6,j=51,k=1, ZONETYPE=Ordered
DATAPACKING=BLOCK
VARLOCATION=([4]=CELLCENTERED)
0.000000 0.200000 0.400000 0.600000 0.800000 1.000000 0.000000 0.200000 0.400000 0.600000 0.800000 1.000000 0.000000 0.200000 0.400000 0.600000 0.800000 1.000000 0.000000 0.200000 0.400000 0.600000 0.800000 1.000000 0.000000 0.200000 0.400000 0.600000 0.800000 1.000000 0.000000 0.200000 0.400000 0.600000 0.800000 1.000000 0.000000 0.200000 0.400000 0.600000 0.800000 1.000000 0.000000 0.200000 0.400000 0.600000 0.800000 1.000000 0.000000 0.200000 0.400000 0.600000 0.800000 1.000000 0.000000 0.200000 0.400000 0.600000 0.800000 1.000000 0.000000 0.200000 0.400000 0.600000 0.800000 1.000000 0.000000 0.200000 0.400000 0.600000 0.800000 1.000000 0.000000 0.200000 0.400000 0.600000 0.800000 1.000000 0.000000 0.200000 0.400000 0.600000 0.800000 1.000000 0.000000 0.200000 0.400000 0.600000 0.800000 1.000000 0.000000 0.200000 0.400000 0.600000 0.800000 1.000000 0.000000 0.200000 0.400000 0.600000 0.800000 1.000000 0.000000 0.200000 0.400000 0.600000 0.800000 1.000000 0.000000 0.200000 0.400000 0.600000 0.800000 1.000000 0.000000 0.200000 0.400000 0.600000 0.800000 1.000000 0.000000 0.200000 0.400000 0.600000 0.800000 1.000000 0.000000 0.200000 0.400000 0.600000 0.800000 1.000000 0.000000 0.200000 0.400000 0.600000 0.800000 1.000000 0.000000 0.200000 0.400000 0.600000 0.800000 1.000000 0.000000 0.200000 0.400000 0.600000 0.800000 1.000000 0.000000 0.200000 0.400000 0.600000 0.800000 1.000000 0.000000 0.200000 0.400000 0.600000 0.800000 1.000000 0.000000 0.200000 0.400000 0.600000 0.800000 1.000000 0.000000 0.200000 0.400000 0.600000 0.800000 1.000000 0.000000 0.200000 0.400000 0.600000 0.800000 1.000000 0.000000 0.200000 0.400000 0.600000 0.800000 1.000000 0.000000 0.200000 0.400000 0.600000 0.800000 1.000000 0.000000 0.200000 0.400000 0.600000 0.800000 1.000000 0.000000 0.200000 0.400000 0.600000 0.800000 1.000000 0.000000 0.200000 0.400000 0.600000 0.800000 1.000000 0.000000 0.200000 0.400000 0.600000 0.800000 1.000000 0.000000 0.200000 0.400000 0.600000 0.800000 1.000000 0.000000 0.200000 0.400000 0.600000 0.800000 1.000000 0.000000 0.200000 0.400000 0.600000 0.800000 1.000000 0.000000 0.200000 0.400000 0.600000 0.800000 1.000000 0.000000 0.200000 0.400000 0.600000 0.800000 1.000000 0.000000 0.200000 0.400000 0.600000 0.800000 1.000000 0.000000 0.200000 0.400000 0.600000 0.800000 1.000000 0.000000 0.200000 0.400000 0.600000 0.800000 1.000000 0.000000 0.200000 0.400000 0.600000 0.800000 1.000000 0.000000 0.200000 0.400000 0.600000 0.800000 1.000000 0.000000 0.200000 0.400000 0.600000 0.800000 1.000000 0.000000 0.200000 0.400000 0.600000 0.800000 1.000000 0.000000 0.200000 0.400000 0.600000 0.800000 1.000000 0.000000 0.200000 0.400000 0.600000 0.800000 1.000000 0.000000 0.200000 0.400000 0.600000 0.800000 1.000000
0.000000 0.000000 0.000000 0.000000 0.000000 0.000000 2000.000000 2000.000000 2000.000000 2000.000000 2000.000000 2000.000000 4000.000000 4000.000000 4000.000000 4000.000000 4000.000000 4000.000000 6000.000000 6000.000000 6000.000000 6000.000000 6000.000000 6000.000000 8000.000000 8000.000000 8000.000000 8000.000000 8000.000000 8000.000000 10000.000000 10000.000000 10000.000000 10000.000000 10000.000000 10000.000000 12000.000000 12000.000000 12000.000000 12000.000000 12000.000000 12000.000000 14000.000000 14000.000000 14000.000000 14000.000000 14000.000000 14000.000000 16000.000000 16000.000000 16000.000000 16000.000000 16000.000000 16000.000000 18000.000000 18000.000000 18000.000000 18000.000000 18000.000000 18000.000000 20000.000000 20000.000000 20000.000000 20000.000000 20000.000000 20000.000000 22000.000000 22000.000000 22000.000000 22000.000000 22000.000000 22000.000000 24000.000000 24000.000000 24000.000000 24000.000000 24000.000000 24000.000000 26000.000000 26000.000000 26000.000000 26000.000000 26000.000000 26000.000000 28000.000000 28000.000000 28000.000000 28000.000000 28000.000000 28000.000000 30000.000000 30000.000000 30000.000000 30000.000000 30000.000000 30000.000000 32000.000000 32000.000000 32000.000000 32000.000000 32000.000000 32000.000000 34000.000000 34000.000000 34000.000000 34000.000000 34000.000000 34000.000000 36000.000000 36000.000000 36000.000000 36000.000000 36000.000000 36000.000000 38000.000000 38000.000000 38000.000000 38000.000000 38000.000000 38000.000000 40000.000000 40000.000000 40000.000000 40000.000000 40000.000000 40000.000000 42000.000000 42000.000000 42000.000000 42000.000000 42000.000000 42000.000000 44000.000000 44000.000000 44000.000000 44000.000000 44000.000000 44000.000000 46000.000000 46000.000000 46000.000000 46000.000000 46000.000000 46000.000000 48000.000000 48000.000000 48000.000000 48000.000000 48000.000000 48000.000000 50000.000000 50000.000000 50000.000000 50000.000000 50000.000000 50000.000000 52000.000000 52000.000000 52000.000000 52000.000000 52000.000000 52000.000000 54000.000000 54000.000000 54000.000000 54000.000000 54000.000000 54000.000000 56000.000000 56000.000000 56000.000000 56000.000000 56000.000000 56000.000000 58000.000000 58000.000000 58000.000000 58000.000000 58000.000000 58000.000000 60000.000000 60000.000000 60000.000000 60000.000000 60000.000000 60000.000000 62000.000000 62000.000000 62000.000000 62000.000000 62000.000000 62000.000000 64000.000000 64000.000000 64000.000000 64000.000000 64000.000000 64000.000000 66000.000000 66000.000000 66000.000000 66000.000000 66000.000000 66000.000000 68000.000000 68000.000000 68000.000000 68000.000000 68000.000000 68000.000000 70000.000000 70000.000000 70000.000000 70000.000000 70000.000000 70000.000000 72000.000000 72000.000000 72000.000000 72000.000000 72000.000000 72000.000000 74000.000000 74000.000000 74000.000000 74000.000000 74000.000000 74000.000000 76000.000000 76000.000000 76000.000000 76000.000000 76000.000000 76000.000000 78000.000000 78000.000000 78000.000000 78000.000000 78000.000000 78000.000000 80000.000000 80000.000000 80000.000000 80000.000000 80000.000000 80000.000000 82000.000000 82000.000000 82000.000000 82000.000000 82000.000000 82000.000000 84000.000000 84000.000000 84000.000000 84000.000000 84000.000000 84000.000000 86000.000000 86000.000000 86000.000000 86000.000000 86000.000000 86000.000000 88000.000000 88000.000000 88000.000000 88000.000000 88000.000000 88000.000000 90000.000000 90000.000000 90000.000000 90000.000000 90000.000000 90000.000000 92000.000000 92000.000000 92000.000000 92000.000000 92000.000000 92000.000000 94000.000000 94000.000000 94000.000000 94000.000000 94000.000000 94000.000000 96000.000000 96000.000000 96000.000000 96000.000000 96000.000000 96000.000000 98000.000000 98000.000000 98000.000000 98000.000000 98000.000000 98000.000000 100000.000000 100000.000000 100000.000000 100000.000000 100000.000000 100000.000000
0.000000 0.000000 0.000000 0.000000 0.000000 0.000000 0.000000 0.000000 0.000000 0.000000 0.000000 0.000000 0.000000 0.000000 0.000000 0.000000 0.000000 0.000000 0.000000 0.000000 0.000000 0.000000 0.000000 0.000000 0.000000 0.000000 0.000000 0.000000 0.000000 0.000000 0.000000 0.000000 0.000000 0.000000 0.000000 0.000000 0.000000 0.000000 0.000000 0.000000 0.000000 0.000000 0.000000 0.000000 0.000000 0.000000 0.000000 0.000000 0.000000 0.000000 0.000000 0.000000 0.000000 0.000000 0.000000 0.000000 0.000000 0.000000 0.000000 0.000000 0.000000 0.000000 0.000000 0.000000 0.000000 0.000000 0.000000 0.000000 0.000000 0.000000 0.000000 0.000000 0.000000 0.000000 0.000000 0.000000 0.000000 0.000000 0.000000 0.000000 0.000000 0.000000 0.000000 0.000000 0.000000 0.000000 0.000000 0.000000 0.000000 0.000000 0.000000 0.000000 0.000000 0.000000 0.000000 0.000000 0.000000 0.000000 0.000000 0.000000 0.000000 0.000000 0.000000 0.000000 0.000000 0.000000 0.000000 0.000000 0.000000 0.000000 0.000000 0.000000 0.000000 0.000000 0.000000 0.000000 0.000000 0.000000 0.000000 0.000000 0.000000 0.000000 0.000000 0.000000 0.000000 0.000000 0.000000 0.000000 0.000000 0.000000 0.000000 0.000000 0.000000 0.000000 0.000000 0.000000 0.000000 0.000000 0.000000 0.000000 0.000000 0.000000 0.000000 0.000000 0.000000 0.000000 0.000000 0.000000 0.000000 0.000000 0.000000 0.000000 0.000000 0.000000 0.000000 0.000000 0.000000 0.000000 0.000000 0.000000 0.000000 0.000000 0.000000 0.000000 0.000000 0.000000 0.000000 0.000000 0.000000 0.000000 0.000000 0.000000 0.000000 0.000000 0.000000 0.000000 0.000000 0.000000 0.000000 0.000000 0.000000 0.000000 0.000000 0.000000 0.000000 0.000000 0.000000 0.000000 0.000000 0.000000 0.000000 0.000000 0.000000 0.000000 0.000000 0.000000 0.000000 0.000000 0.000000 0.000000 0.000000 0.000000 0.000000 0.000000 0.000000 0.000000 0.000000 0.000000 0.000000 0.000000 0.000000 0.000000 0.000000 0.000000 0.000000 0.000000 0.000000 0.000000 0.000000 0.000000 0.000000 0.000000 0.000000 0.000000 0.000000 0.000000 0.000000 0.000000 0.000000 0.000000 0.000000 0.000000 0.000000 0.000000 0.000000 0.000000 0.000000 0.000000 0.000000 0.000000 0.000000 0.000000 0.000000 0.000000 0.000000 0.000000 0.000000 0.000000 0.000000 0.000000 0.000000 0.000000 0.000000 0.000000 0.000000 0.000000 0.000000 0.000000 0.000000 0.000000 0.000000 0.000000 0.000000 0.000000 0.000000 0.000000 0.000000 0.000000 0.000000 0.000000 0.000000 0.000000 0.000000 0.000000 0.000000 0.000000 0.000000 0.000000 0.000000 0.000000 0.000000 0.000000 0.000000 0.000000 0.000000 0.000000 0.000000 0.000000 0.000000 0.000000 0.000000 0.000000 0.000000 0.000000 0.000000 0.000000 0.000000 0.000000 0.000000 0.000000 0.000000 0.000000 0.000000 0.000000 0.000000 0.000000
0.267195 0.385947 0.462286 0.513179 0.542866 0.267195 0.385947 0.462286 0.513179 0.542866 0.267195 0.385947 0.462286 0.513179 0.542866 0.267195 0.385947 0.462286 0.513179 0.542866 0.267195 0.385947 0.462286 0.513179 0.542866 0.267195 0.385947 0.462286 0.513179 0.542866 0.267195 0.385947 0.462286 0.513179 0.542866 0.267195 0.385947 0.462286 0.513179 0.542866 0.267195 0.385947 0.462286 0.513179 0.542866 0.267195 0.385947 0.462286 0.513179 0.542866 0.267195 0.385947 0.462286 0.513179 0.542866 0.267195 0.385947 0.462286 0.513179 0.542866 0.267195 0.385947 0.462286 0.513179 0.542866 0.267195 0.385947 0.462286 0.513179 0.542866 0.267195 0.385947 0.462286 0.513179 0.542866 0.267195 0.385947 0.462286 0.513179 0.542866 0.267195 0.385947 0.462286 0.513179 0.542866 0.267195 0.385947 0.462286 0.513179 0.542866 0.267195 0.385947 0.462286 0.513179 0.542866 0.267195 0.385947 0.462286 0.513179 0.542866 0.267195 0.385947 0.462286 0.513179 0.542866 0.267195 0.385947 0.462286 0.513179 0.542866 0.267195 0.385947 0.462286 0.513179 0.542866 0.267195 0.385947 0.462286 0.513179 0.542866 0.267195 0.385947 0.462286 0.513179 0.542866 0.267195 0.385947 0.462286 0.513179 0.542866 0.267195 0.385947 0.462286 0.513179 0.542866 0.267195 0.385947 0.462286 0.513179 0.542866 0.267195 0.385947 0.462286 0.513179 0.542866 0.267195 0.385947 0.462286 0.513179 0.542866 0.267195 0.385947 0.462286 0.513179 0.542866 0.267195 0.385947 0.462286 0.513179 0.542866 0.267195 0.385947 0.462286 0.513179 0.542866 0.267195 0.385947 0.462286 0.513179 0.542866 0.267195 0.385947 0.462286 0.513179 0.542866 0.267195 0.385947 0.462286 0.513179 0.542866 0.267195 0.385947 0.462286 0.513179 0.542866 0.267195 0.385947 0.462286 0.513179 0.542866 0.267195 0.385947 0.462286 0.513179 0.542866 0.267195 0.385947 0.462286 0.513179 0.542866 0.267195 0.385947 0.462286 0.513179 0.542866 0.267195 0.385947 0.462286 0.513179 0.542866 0.267195 0.385947 0.462286 0.513179 0.542866 0.267195 0.385947 0.462286 0.513179 0.542866 0.267194 0.385947 0.462286 0.513179 0.542866 0.267194 0.385946 0.462286 0.513179 0.542866 0.267194 0.385946 0.462286 0.513179 0.542866 0.267194 0.385946 0.462286 0.513179 0.542866 0.267194 0.385946 0.462286 0.513178 0.542866 0.267191 0.385942 0.462281 0.513173 0.542860 