Variables="X","Y","Z","GAMMA"
ZONE T="WING" i=6,j=51,k=1, ZONETYPE=Ordered
DATAPACKING=BLOCK
VARLOCATION=([4]=CELLCENTERED)
0.000000 0.200000 0.400000 0.600000 0.800000 1.000000 0.000000 0.200000 0.400000 0.600000 0.800000 1.000000 0.000000 0.200000 0.400000 0.600000 0.800000 1.000000 0.000000 0.200000 0.400000 0.600000 0.800000 1.000000 0.000000 0.200000 0.400000 0.600000 0.800000 1.000000 0.000000 0.200000 0.400000 0.600000 0.800000 1.000000 0.000000 0.200000 0.400000 0.600000 0.800000 1.000000 0.000000 0.200000 0.400000 0.600000 0.800000 1.000000 0.000000 0.200000 0.400000 0.600000 0.800000 1.000000 0.000000 0.200000 0.400000 0.600000 0.800000 1.000000 0.000000 0.200000 0.400000 0.600000 0.800000 1.000000 0.000000 0.200000 0.400000 0.600000 0.800000 1.000000 0.000000 0.200000 0.400000 0.600000 0.800000 1.000000 0.000000 0.200000 0.400000 0.600000 0.800000 1.000000 0.000000 0.200000 0.400000 0.600000 0.800000 1.000000 0.000000 0.200000 0.400000 0.600000 0.800000 1.000000 0.000000 0.200000 0.400000 0.600000 0.800000 1.000000 0.000000 0.200000 0.400000 0.600000 0.800000 1.000000 0.000000 0.200000 0.400000 0.600000 0.800000 1.000000 0.000000 0.200000 0.400000 0.600000 0.800000 1.000000 0.000000 0.200000 0.400000 0.600000 0.800000 1.000000 0.000000 0.200000 0.400000 0.600000 0.800000 1.000000 0.000000 0.200000 0.400000 0.600000 0.800000 1.000000 0.000000 0.200000 0.400000 0.600000 0.800000 1.000000 0.000000 0.200000 0.400000 0.600000 0.800000 1.000000 0.000000 0.200000 0.400000 0.600000 0.800000 1.000000 0.000000 0.200000 0.400000 0.600000 0.800000 1.000000 0.000000 0.200000 0.400000 0.600000 0.800000 1.000000 0.000000 0.200000 0.400000 0.600000 0.800000 1.000000 0.000000 0.200000 0.400000 0.600000 0.800000 1.000000 0.000000 0.200000 0.400000 0.600000 0.800000 1.000000 0.000000 0.200000 0.400000 0.600000 0.800000 1.000000 0.000000 0.200000 0.400000 0.600000 0.800000 1.000000 0.000000 0.200000 0.400000 0.600000 0.800000 1.000000 0.000000 0.200000 0.400000 0.600000 0.800000 1.000000 0.000000 0.200000 0.400000 0.600000 0.800000 1.000000 0.000000 0.200000 0.400000 0.600000 0.800000 1.000000 0.000000 0.200000 0.400000 0.600000 0.800000 1.000000 0.000000 0.200000 0.400000 0.600000 0.800000 1.000000 0.000000 0.200000 0.400000 0.600000 0.800000 1.000000 0.000000 0.200000 0.400000 0.600000 0.800000 1.000000 0.000000 0.200000 0.400000 0.600000 0.800000 1.000000 0.000000 0.200000 0.400000 0.600000 0.800000 1.000000 0.000000 0.200000 0.400000 0.600000 0.800000 1.000000 0.000000 0.200000 0.400000 0.600000 0.800000 1.000000 0.000000 0.200000 0.400000 0.600000 0.800000 1.000000 0.000000 0.200000 0.400000 0.600000 0.800000 1.000000 0.000000 0.200000 0.400000 0.600000 0.800000 1.000000 0.000000 0.200000 0.400000 0.600000 0.800000 1.000000 0.000000 0.200000 0.400000 0.600000 0.800000 1.000000 0.000000 0.200000 0.400000 0.600000 0.800000 1.000000
0.000000 0.000000 0.000000 0.000000 0.000000 0.000000 0.150000 0.150000 0.150000 0.150000 0.150000 0.150000 0.300000 0.300000 0.300000 0.300000 0.300000 0.300000 0.450000 0.450000 0.450000 0.450000 0.450000 0.450000 0.600000 0.600000 0.600000 0.600000 0.600000 0.600000 0.750000 0.750000 0.750000 0.750000 0.750000 0.750000 0.900000 0.900000 0.900000 0.900000 0.900000 0.900000 1.050000 1.050000 1.050000 1.050000 1.050000 1.050000 1.200000 1.200000 1.200000 1.200000 1.200000 1.200000 1.350000 1.350000 1.350000 1.350000 1.350000 1.350000 1.500000 1.500000 1.500000 1.500000 1.500000 1.500000 1.650000 1.650000 1.650000 1.650000 1.650000 1.650000 1.800000 1.800000 1.800000 1.800000 1.800000 1.800000 1.950000 1.950000 1.950000 1.950000 1.950000 1.950000 2.100000 2.100000 2.100000 2.100000 2.100000 2.100000 2.250000 2.250000 2.250000 2.250000 2.250000 2.250000 2.400000 2.400000 2.400000 2.400000 2.400000 2.400000 2.550000 2.550000 2.550000 2.550000 2.550000 2.550000 2.700000 2.700000 2.700000 2.700000 2.700000 2.700000 2.850000 2.850000 2.850000 2.850000 2.850000 2.850000 3.000000 3.000000 3.000000 3.000000 3.000000 3.000000 3.150000 3.150000 3.150000 3.150000 3.150000 3.150000 3.300000 3.300000 3.300000 3.300000 3.300000 3.300000 3.450000 3.450000 3.450000 3.450000 3.450000 3.450000 3.600000 3.600000 3.600000 3.600000 3.600000 3.600000 3.750000 3.750000 3.750000 3.750000 3.750000 3.750000 3.900000 3.900000 3.900000 3.900000 3.900000 3.900000 4.050000 4.050000 4.050000 4.050000 4.050000 4.050000 4.200000 4.200000 4.200000 4.200000 4.200000 4.200000 4.350000 4.350000 4.350000 4.350000 4.350000 4.350000 4.500000 4.500000 4.500000 4.500000 4.500000 4.500000 4.650000 4.650000 4.650000 4.650000 4.650000 4.650000 4.800000 4.800000 4.800000 4.800000 4.800000 4.800000 4.950000 4.950000 4.950000 4.950000 4.950000 4.950000 5.100000 5.100000 5.100000 5.100000 5.100000 5.100000 5.250000 5.250000 5.250000 5.250000 5.250000 5.250000 5.400000 5.400000 5.400000 5.400000 5.400000 5.400000 5.550000 5.550000 5.550000 5.550000 5.550000 5.550000 5.700000 5.700000 5.700000 5.700000 5.700000 5.700000 5.850000 5.850000 5.850000 5.850000 5.850000 5.850000 6.000000 6.000000 6.000000 6.000000 6.000000 6.000000 6.150000 6.150000 6.150000 6.150000 6.150000 6.150000 6.300000 6.300000 6.300000 6.300000 6.300000 6.300000 6.450000 6.450000 6.450000 6.450000 6.450000 6.450000 6.600000 6.600000 6.600000 6.600000 6.600000 6.600000 6.750000 6.750000 6.750000 6.750000 6.750000 6.750000 6.900000 6.900000 6.900000 6.900000 6.900000 6.900000 7.050000 7.050000 7.050000 7.050000 7.050000 7.050000 7.200000 7.200000 7.200000 7.200000 7.200000 7.200000 7.350000 7.350000 7.350000 7.350000 7.350000 7.350000 7.500000 7.500000 7.500000 7.500000 7.500000 7.500000
0.000000 0.000000 0.000000 0.000000 0.000000 0.000000 0.000000 0.000000 0.000000 0.000000 0.000000 0.000000 0.000000 0.000000 0.000000 0.000000 0.000000 0.000000 0.000000 0.000000 0.000000 0.000000 0.000000 0.000000 0.000000 0.000000 0.000000 0.000000 0.000000 0.000000 0.000000 0.000000 0.000000 0.000000 0.000000 0.000000 0.000000 0.000000 0.000000 0.000000 0.000000 0.000000 0.000000 0.000000 0.000000 0.000000 0.000000 0.000000 0.000000 0.000000 0.000000 0.000000 0.000000 0.000000 0.000000 0.000000 0.000000 0.000000 0.000000 0.000000 0.000000 0.000000 0.000000 0.000000 0.000000 0.000000 0.000000 0.000000 0.000000 0.000000 0.000000 0.000000 0.000000 0.000000 0.000000 0.000000 0.000000 0.000000 0.000000 0.000000 0.000000 0.000000 0.000000 0.000000 0.000000 0.000000 0.000000 0.000000 0.000000 0.000000 0.000000 0.000000 0.000000 0.000000 0.000000 0.000000 0.000000 0.000000 0.000000 0.000000 0.000000 0.000000 0.000000 0.000000 0.000000 0.000000 0.000000 0.000000 0.000000 0.000000 0.000000 0.000000 0.000000 0.000000 0.000000 0.000000 0.000000 0.000000 0.000000 0.000000 0.000000 0.000000 0.000000 0.000000 0.000000 0.000000 0.000000 0.000000 0.000000 0.000000 0.000000 0.000000 0.000000 0.000000 0.000000 0.000000 0.000000 0.000000 0.000000 0.000000 0.000000 0.000000 0.000000 0.000000 0.000000 0.000000 0.000000 0.000000 0.000000 0.000000 0.000000 0.000000 0.000000 0.000000 0.000000 0.000000 0.000000 0.000000 0.000000 0.000000 0.000000 0.000000 0.000000 0.000000 0.000000 0.000000 0.000000 0.000000 0.000000 0.000000 0.000000 0.000000 0.000000 0.000000 0.000000 0.000000 0.000000 0.000000 0.000000 0.000000 0.000000 0.000000 0.000000 0.000000 0.000000 0.000000 0.000000 0.000000 0.000000 0.000000 0.000000 0.000000 0.000000 0.000000 0.000000 0.000000 0.000000 0.000000 0.000000 0.000000 0.000000 0.000000 0.000000 0.000000 0.000000 0.000000 0.000000 0.000000 0.000000 0.000000 0.000000 0.000000 0.000000 0.000000 0.000000 0.000000 0.000000 0.000000 0.000000 0.000000 0.000000 0.000000 0.000000 0.000000 0.000000 0.000000 0.000000 0.000000 0.000000 0.000000 0.000000 0.000000 0.000000 0.000000 0.000000 0.000000 0.000000 0.000000 0.000000 0.000000 0.000000 0.000000 0.000000 0.000000 0.000000 0.000000 0.000000 0.000000 0.000000 0.000000 0.000000 0.000000 0.000000 0.000000 0.000000 0.000000 0.000000 0.000000 0.000000 0.000000 0.000000 0.000000 0.000000 0.000000 0.000000 0.000000 0.000000 0.000000 0.000000 0.000000 0.000000 0.000000 0.000000 0.000000 0.000000 0.000000 0.000000 0.000000 0.000000 0.000000 0.000000 0.000000 0.000000 0.000000 0.000000 0.000000 0.000000 0.000000 0.000000 0.000000 0.000000 0.000000 0.000000 0.000000 0.000000 0.000000 0.000000 0.000000 0.000000 0.000000 0.000000 0.000000 0.000000 0.000000 0.000000 0.000000
0.248548 0.358839 0.429632 0.476760 0.504214 0.248530 0.358812 0.429600 0.476724 0.504175 0.248494 0.358759 0.429536 0.476651 0.504098 0.248440 0.358680 0.429439 0.476542 0.503981 0.248367 0.358573 0.429309 0.476396 0.503825 0.248276 0.358438 0.429145 0.476211 0.503628 0.248166 0.358276 0.428946 0.475988 0.503390 0.248036 0.358084 0.428712 0.475725 0.503108 0.247885 0.357862 0.428442 0.475420 0.502783 0.247713 0.357609 0.428133 0.475072 0.502412 0.247520 0.357323 0.427785 0.474680 0.501992 0.247303 0.357003 0.427394 0.474240 0.501523 0.247062 0.356647 0.426960 0.473751 0.501000 0.246796 0.356254 0.426480 0.473210 0.500422 0.246502 0.355820 0.425951 0.472614 0.499785 0.246180 0.355344 0.425370 0.471959 0.499084 0.245827 0.354823 0.424733 0.471240 0.498316 0.245442 0.354253 0.424036 0.470455 0.497476 0.245021 0.353631 0.423275 0.469596 0.496558 0.244563 0.352952 0.422445 0.468659 0.495556 0.244063 0.352212 0.421540 0.467637 0.494462 0.243519 0.351406 0.420552 0.466522 0.493269 0.242927 0.350527 0.419476 0.465305 0.491966 0.242282 0.349569 0.418302 0.463977 0.490545 0.241578 0.348524 0.417020 0.462527 0.488992 0.240811 0.347382 0.415619 0.460942 0.487294 0.239972 0.346135 0.414086 0.459207 0.485434 0.239056 0.344769 0.412407 0.457305 0.483395 0.238052 0.343271 0.410564 0.455216 0.481154 0.236950 0.341625 0.408538 0.452917 0.478688 0.235738 0.339814 0.406304 0.450381 0.475966 0.234402 0.337814 0.403836 0.447577 0.472955 0.232926 0.335600 0.401100 0.444466 0.469613 0.231290 0.333142 0.398059 0.441005 0.465893 0.229470 0.330403 0.394665 0.437140 0.461736 0.227439 0.327339 0.390864 0.432805 0.457072 0.225162 0.323898 0.386587 0.427922 0.451815 0.222598 0.320012 0.381749 0.422394 0.445860 0.219695 0.315602 0.376248 0.416100 0.439076 0.216389 0.310565 0.369951 0.408887 0.431298 0.212598 0.304769 0.362690 0.400560 0.422315 0.208215 0.298043 0.354246 0.390865 0.411854 0.203098 0.290159 0.344326 0.379467 0.399554 0.197053 0.280801 0.332528 0.365907 0.384927 0.189800 0.269520 0.318285 0.349544 0.367296 0.180919 0.255637 0.300752 0.329441 0.345678 0.169724 0.238061 0.278607 0.304156 0.318582 0.154965 0.214858 0.249589 0.271281 0.283537 0.133926 0.182092 0.209299 0.226214 0.235838 0.098639 0.129456 0.146642 0.157409 0.163649 