Variables="X","Y","Z","GAMMA"
ZONE T="WING" i=6,j=51,k=1, ZONETYPE=Ordered
DATAPACKING=BLOCK
VARLOCATION=([4]=CELLCENTERED)
0.000000 0.333333 0.666667 1.000000 1.333333 1.666667 0.000000 0.330667 0.661333 0.992000 1.322667 1.653333 0.000000 0.328000 0.656000 0.984000 1.312000 1.640000 0.000000 0.325333 0.650667 0.976000 1.301333 1.626667 0.000000 0.322667 0.645333 0.968000 1.290667 1.613333 0.000000 0.320000 0.640000 0.960000 1.280000 1.600000 0.000000 0.317333 0.634667 0.952000 1.269333 1.586667 0.000000 0.314667 0.629333 0.944000 1.258667 1.573333 0.000000 0.312000 0.624000 0.936000 1.248000 1.560000 0.000000 0.309333 0.618667 0.928000 1.237333 1.546667 0.000000 0.306667 0.613333 0.920000 1.226667 1.533333 0.000000 0.304000 0.608000 0.912000 1.216000 1.520000 0.000000 0.301333 0.602667 0.904000 1.205333 1.506667 0.000000 0.298667 0.597333 0.896000 1.194667 1.493333 0.000000 0.296000 0.592000 0.888000 1.184000 1.480000 0.000000 0.293333 0.586667 0.880000 1.173333 1.466667 0.000000 0.290667 0.581333 0.872000 1.162667 1.453333 0.000000 0.288000 0.576000 0.864000 1.152000 1.440000 0.000000 0.285333 0.570667 0.856000 1.141333 1.426667 0.000000 0.282667 0.565333 0.848000 1.130667 1.413333 0.000000 0.280000 0.560000 0.840000 1.120000 1.400000 0.000000 0.277333 0.554667 0.832000 1.109333 1.386667 0.000000 0.274667 0.549333 0.824000 1.098667 1.373333 0.000000 0.272000 0.544000 0.816000 1.088000 1.360000 0.000000 0.269333 0.538667 0.808000 1.077333 1.346667 0.000000 0.266667 0.533333 0.800000 1.066667 1.333333 0.000000 0.264000 0.528000 0.792000 1.056000 1.320000 0.000000 0.261333 0.522667 0.784000 1.045333 1.306667 0.000000 0.258667 0.517333 0.776000 1.034667 1.293333 0.000000 0.256000 0.512000 0.768000 1.024000 1.280000 0.000000 0.253333 0.506667 0.760000 1.013333 1.266667 0.000000 0.250667 0.501333 0.752000 1.002667 1.253333 0.000000 0.248000 0.496000 0.744000 0.992000 1.240000 0.000000 0.245333 0.490667 0.736000 0.981333 1.226667 0.000000 0.242667 0.485333 0.728000 0.970667 1.213333 0.000000 0.240000 0.480000 0.720000 0.960000 1.200000 0.000000 0.237333 0.474667 0.712000 0.949333 1.186667 0.000000 0.234667 0.469333 0.704000 0.938667 1.173333 0.000000 0.232000 0.464000 0.696000 0.928000 1.160000 0.000000 0.229333 0.458667 0.688000 0.917333 1.146667 0.000000 0.226667 0.453333 0.680000 0.906667 1.133333 0.000000 0.224000 0.448000 0.672000 0.896000 1.120000 0.000000 0.221333 0.442667 0.664000 0.885333 1.106667 0.000000 0.218667 0.437333 0.656000 0.874667 1.093333 0.000000 0.216000 0.432000 0.648000 0.864000 1.080000 0.000000 0.213333 0.426667 0.640000 0.853333 1.066667 0.000000 0.210667 0.421333 0.632000 0.842667 1.053333 0.000000 0.208000 0.416000 0.624000 0.832000 1.040000 0.000000 0.205333 0.410667 0.616000 0.821333 1.026667 0.000000 0.202667 0.405333 0.608000 0.810667 1.013333 0.000000 0.200000 0.400000 0.600000 0.800000 1.000000
0.000000 0.000000 0.000000 0.000000 0.000000 0.000000 0.145600 0.145600 0.145600 0.145600 0.145600 0.145600 0.291200 0.291200 0.291200 0.291200 0.291200 0.291200 0.436800 0.436800 0.436800 0.436800 0.436800 0.436800 0.582400 0.582400 0.582400 0.582400 0.582400 0.582400 0.728000 0.728000 0.728000 0.728000 0.728000 0.728000 0.873600 0.873600 0.873600 0.873600 0.873600 0.873600 1.019200 1.019200 1.019200 1.019200 1.019200 1.019200 1.164800 1.164800 1.164800 1.164800 1.164800 1.164800 1.310400 1.310400 1.310400 1.310400 1.310400 1.310400 1.456000 1.456000 1.456000 1.456000 1.456000 1.456000 1.601600 1.601600 1.601600 1.601600 1.601600 1.601600 1.747200 1.747200 1.747200 1.747200 1.747200 1.747200 1.892800 1.892800 1.892800 1.892800 1.892800 1.892800 2.038400 2.038400 2.038400 2.038400 2.038400 2.038400 2.184000 2.184000 2.184000 2.184000 2.184000 2.184000 2.329600 2.329600 2.329600 2.329600 2.329600 2.329600 2.475200 2.475200 2.475200 2.475200 2.475200 2.475200 2.620800 2.620800 2.620800 2.620800 2.620800 2.620800 2.766400 2.766400 2.766400 2.766400 2.766400 2.766400 2.912000 2.912000 2.912000 2.912000 2.912000 2.912000 3.057600 3.057600 3.057600 3.057600 3.057600 3.057600 3.203200 3.203200 3.203200 3.203200 3.203200 3.203200 3.348800 3.348800 3.348800 3.348800 3.348800 3.348800 3.494400 3.494400 3.494400 3.494400 3.494400 3.494400 3.640000 3.640000 3.640000 3.640000 3.640000 3.640000 3.785600 3.785600 3.785600 3.785600 3.785600 3.785600 3.931200 3.931200 3.931200 3.931200 3.931200 3.931200 4.076800 4.076800 4.076800 4.076800 4.076800 4.076800 4.222400 4.222400 4.222400 4.222400 4.222400 4.222400 4.368000 4.368000 4.368000 4.368000 4.368000 4.368000 4.513600 4.513600 4.513600 4.513600 4.513600 4.513600 4.659200 4.659200 4.659200 4.659200 4.659200 4.659200 4.804800 4.804800 4.804800 4.804800 4.804800 4.804800 4.950400 4.950400 4.950400 4.950400 4.950400 4.950400 5.096000 5.096000 5.096000 5.096000 5.096000 5.096000 5.241600 5.241600 5.241600 5.241600 5.241600 5.241600 5.387200 5.387200 5.387200 5.387200 5.387200 5.387200 5.532800 5.532800 5.532800 5.532800 5.532800 5.532800 5.678400 5.678400 5.678400 5.678400 5.678400 5.678400 5.824000 5.824000 5.824000 5.824000 5.824000 5.824000 5.969600 5.969600 5.969600 5.969600 5.969600 5.969600 6.115200 6.115200 6.115200 6.115200 6.115200 6.115200 6.260800 6.260800 6.260800 6.260800 6.260800 6.260800 6.406400 6.406400 6.406400 6.406400 6.406400 6.406400 6.552000 6.552000 6.552000 6.552000 6.552000 6.552000 6.697600 6.697600 6.697600 6.697600 6.697600 6.697600 6.843200 6.843200 6.843200 6.843200 6.843200 6.843200 6.988800 6.988800 6.988800 6.988800 6.988800 6.988800 7.134400 7.134400 7.134400 7.134400 7.134400 7.134400 7.280000 7.280000 7.280000 7.280000 7.280000 7.280000
0.000000 0.000000 0.000000 0.000000 0.000000 0.000000 0.000000 0.000000 0.000000 0.000000 0.000000 0.000000 0.000000 0.000000 0.000000 0.000000 0.000000 0.000000 0.000000 0.000000 0.000000 0.000000 0.000000 0.000000 0.000000 0.000000 0.000000 0.000000 0.000000 0.000000 0.000000 0.000000 0.000000 0.000000 0.000000 0.000000 0.000000 0.000000 0.000000 0.000000 0.000000 0.000000 0.000000 0.000000 0.000000 0.000000 0.000000 0.000000 0.000000 0.000000 0.000000 0.000000 0.000000 0.000000 0.000000 0.000000 0.000000 0.000000 0.000000 0.000000 0.000000 0.000000 0.000000 0.000000 0.000000 0.000000 0.000000 0.000000 0.000000 0.000000 0.000000 0.000000 0.000000 0.000000 0.000000 0.000000 0.000000 0.000000 0.000000 0.000000 0.000000 0.000000 0.000000 0.000000 0.000000 0.000000 0.000000 0.000000 0.000000 0.000000 0.000000 0.000000 0.000000 0.000000 0.000000 0.000000 0.000000 0.000000 0.000000 0.000000 0.000000 0.000000 0.000000 0.000000 0.000000 0.000000 0.000000 0.000000 0.000000 0.000000 0.000000 0.000000 0.000000 0.000000 0.000000 0.000000 0.000000 0.000000 0.000000 0.000000 0.000000 0.000000 0.000000 0.000000 0.000000 0.000000 0.000000 0.000000 0.000000 0.000000 0.000000 0.000000 0.000000 0.000000 0.000000 0.000000 0.000000 0.000000 0.000000 0.000000 0.000000 0.000000 0.000000 0.000000 0.000000 0.000000 0.000000 0.000000 0.000000 0.000000 0.000000 0.000000 0.000000 0.000000 0.000000 0.000000 0.000000 0.000000 0.000000 0.000000 0.000000 0.000000 0.000000 0.000000 0.000000 0.000000 0.000000 0.000000 0.000000 0.000000 0.000000 0.000000 0.000000 0.000000 0.000000 0.000000 0.000000 0.000000 0.000000 0.000000 0.000000 0.000000 0.000000 0.000000 0.000000 0.000000 0.000000 0.000000 0.000000 0.000000 0.000000 0.000000 0.000000 0.000000 0.000000 0.000000 0.000000 0.000000 0.000000 0.000000 0.000000 0.000000 0.000000 0.000000 0.000000 0.000000 0.000000 0.000000 0.000000 0.000000 0.000000 0.000000 0.000000 0.000000 0.000000 0.000000 0.000000 0.000000 0.000000 0.000000 0.000000 0.000000 0.000000 0.000000 0.000000 0.000000 0.000000 0.000000 0.000000 0.000000 0.000000 0.000000 0.000000 0.000000 0.000000 0.000000 0.000000 0.000000 0.000000 0.000000 0.000000 0.000000 0.000000 0.000000 0.000000 0.000000 0.000000 0.000000 0.000000 0.000000 0.000000 0.000000 0.000000 0.000000 0.000000 0.000000 0.000000 0.000000 0.000000 0.000000 0.000000 0.000000 0.000000 0.000000 0.000000 0.000000 0.000000 0.000000 0.000000 0.000000 0.000000 0.000000 0.000000 0.000000 0.000000 0.000000 0.000000 0.000000 0.000000 0.000000 0.000000 0.000000 0.000000 0.000000 0.000000 0.000000 0.000000 0.000000 0.000000 0.000000 0.000000 0.000000 0.000000 0.000000 0.000000 0.000000 0.000000 0.000000 0.000000 0.000000 0.000000 0.000000 0.000000 0.000000 0.000000 0.000000
0.092706 0.133399 0.159176 0.176058 0.185678 0.092452 0.133034 0.158772 0.175667 0.185348 0.092119 0.132572 0.158255 0.175147 0.184861 0.091738 0.132047 0.157661 0.174534 0.184258 0.091319 0.131469 0.157001 0.173839 0.183557 0.090868 0.130843 0.156282 0.173072 0.182773 0.090390 0.130175 0.155508 0.172240 0.181915 0.089885 0.129467 0.154684 0.171349 0.180990 0.089357 0.128723 0.153812 0.170401 0.180003 0.088805 0.127943 0.152897 0.169402 0.178960 0.088233 0.127130 0.151940 0.168355 0.177863 0.087640 0.126286 0.150942 0.167261 0.176716 0.087027 0.125412 0.149907 0.166124 0.175521 0.086394 0.124508 0.148836 0.164944 0.174281 0.085743 0.123576 0.147728 0.163723 0.172996 0.085074 0.122617 0.146586 0.162463 0.171668 0.084387 0.121630 0.145410 0.161163 0.170298 0.083682 0.120615 0.144201 0.159825 0.168886 0.082958 0.119574 0.142957 0.158449 0.167433 0.082217 0.118506 0.141680 0.157034 0.165939 0.081458 0.117411 0.140370 0.155581 0.164403 0.080680 0.116287 0.139024 0.154088 0.162824 0.079884 0.115135 0.137643 0.152554 0.161202 0.079067 0.113953 0.136225 0.150979 0.159535 0.078230 0.112740 0.134769 0.149360 0.157821 0.077372 0.111496 0.133273 0.147695 0.156057 0.076491 0.110216 0.131734 0.145981 0.154241 0.075586 0.108900 0.130150 0.144216 0.152369 0.074655 0.107545 0.128517 0.142395 0.150437 0.073695 0.106148 0.126831 0.140513 0.148440 0.072706 0.104703 0.125086 0.138564 0.146370 0.071682 0.103208 0.123278 0.136542 0.144222 0.070622 0.101656 0.121398 0.134439 0.141986 0.069519 0.100039 0.119439 0.132243 0.139650 0.068370 0.098351 0.117389 0.129944 0.137203 0.067168 0.096581 0.115236 0.127526 0.134627 0.065905 0.094717 0.112963 0.124971 0.131903 0.064571 0.092743 0.110553 0.122257 0.129007 0.063154 0.090641 0.107979 0.119355 0.125909 0.061640 0.088385 0.105212 0.116229 0.122568 0.060008 0.085946 0.102210 0.112833 0.118936 0.058234 0.083281 0.098922 0.109107 0.114949 0.056282 0.080335 0.095276 0.104970 0.110519 0.054105 0.077032 0.091176 0.100312 0.105530 0.051634 0.073261 0.086483 0.094976 0.099818 0.048766 0.068853 0.080988 0.088735 0.093143 0.045328 0.063536 0.074365 0.081230 0.085137 0.041004 0.056827 0.066048 0.071863 0.075182 0.035107 0.047735 0.054932 0.059468 0.062087 0.025609 0.033650 0.038195 0.041093 0.042812 