Variables="X","Y","Z","GAMMA"
ZONE T="WING" i=6,j=51,k=1, ZONETYPE=Ordered
DATAPACKING=BLOCK
VARLOCATION=([4]=CELLCENTERED)
0.000000 0.200000 0.400000 0.600000 0.800000 1.000000 0.000000 0.200000 0.400000 0.600000 0.800000 1.000000 0.000000 0.200000 0.400000 0.600000 0.800000 1.000000 0.000000 0.200000 0.400000 0.600000 0.800000 1.000000 0.000000 0.200000 0.400000 0.600000 0.800000 1.000000 0.000000 0.200000 0.400000 0.600000 0.800000 1.000000 0.000000 0.200000 0.400000 0.600000 0.800000 1.000000 0.000000 0.200000 0.400000 0.600000 0.800000 1.000000 0.000000 0.200000 0.400000 0.600000 0.800000 1.000000 0.000000 0.200000 0.400000 0.600000 0.800000 1.000000 0.000000 0.200000 0.400000 0.600000 0.800000 1.000000 0.000000 0.200000 0.400000 0.600000 0.800000 1.000000 0.000000 0.200000 0.400000 0.600000 0.800000 1.000000 0.000000 0.200000 0.400000 0.600000 0.800000 1.000000 0.000000 0.200000 0.400000 0.600000 0.800000 1.000000 0.000000 0.200000 0.400000 0.600000 0.800000 1.000000 0.000000 0.200000 0.400000 0.600000 0.800000 1.000000 0.000000 0.200000 0.400000 0.600000 0.800000 1.000000 0.000000 0.200000 0.400000 0.600000 0.800000 1.000000 0.000000 0.200000 0.400000 0.600000 0.800000 1.000000 0.000000 0.200000 0.400000 0.600000 0.800000 1.000000 0.000000 0.200000 0.400000 0.600000 0.800000 1.000000 0.000000 0.200000 0.400000 0.600000 0.800000 1.000000 0.000000 0.200000 0.400000 0.600000 0.800000 1.000000 0.000000 0.200000 0.400000 0.600000 0.800000 1.000000 0.000000 0.200000 0.400000 0.600000 0.800000 1.000000 0.000000 0.200000 0.400000 0.600000 0.800000 1.000000 0.000000 0.200000 0.400000 0.600000 0.800000 1.000000 0.000000 0.200000 0.400000 0.600000 0.800000 1.000000 0.000000 0.200000 0.400000 0.600000 0.800000 1.000000 0.000000 0.200000 0.400000 0.600000 0.800000 1.000000 0.000000 0.200000 0.400000 0.600000 0.800000 1.000000 0.000000 0.200000 0.400000 0.600000 0.800000 1.000000 0.000000 0.200000 0.400000 0.600000 0.800000 1.000000 0.000000 0.200000 0.400000 0.600000 0.800000 1.000000 0.000000 0.200000 0.400000 0.600000 0.800000 1.000000 0.000000 0.200000 0.400000 0.600000 0.800000 1.000000 0.000000 0.200000 0.400000 0.600000 0.800000 1.000000 0.000000 0.200000 0.400000 0.600000 0.800000 1.000000 0.000000 0.200000 0.400000 0.600000 0.800000 1.000000 0.000000 0.200000 0.400000 0.600000 0.800000 1.000000 0.000000 0.200000 0.400000 0.600000 0.800000 1.000000 0.000000 0.200000 0.400000 0.600000 0.800000 1.000000 0.000000 0.200000 0.400000 0.600000 0.800000 1.000000 0.000000 0.200000 0.400000 0.600000 0.800000 1.000000 0.000000 0.200000 0.400000 0.600000 0.800000 1.000000 0.000000 0.200000 0.400000 0.600000 0.800000 1.000000 0.000000 0.200000 0.400000 0.600000 0.800000 1.000000 0.000000 0.200000 0.400000 0.600000 0.800000 1.000000 0.000000 0.200000 0.400000 0.600000 0.800000 1.000000 0.000000 0.200000 0.400000 0.600000 0.800000 1.000000
0.000000 0.000000 0.000000 0.000000 0.000000 0.000000 0.080000 0.080000 0.080000 0.080000 0.080000 0.080000 0.160000 0.160000 0.160000 0.160000 0.160000 0.160000 0.240000 0.240000 0.240000 0.240000 0.240000 0.240000 0.320000 0.320000 0.320000 0.320000 0.320000 0.320000 0.400000 0.400000 0.400000 0.400000 0.400000 0.400000 0.480000 0.480000 0.480000 0.480000 0.480000 0.480000 0.560000 0.560000 0.560000 0.560000 0.560000 0.560000 0.640000 0.640000 0.640000 0.640000 0.640000 0.640000 0.720000 0.720000 0.720000 0.720000 0.720000 0.720000 0.800000 0.800000 0.800000 0.800000 0.800000 0.800000 0.880000 0.880000 0.880000 0.880000 0.880000 0.880000 0.960000 0.960000 0.960000 0.960000 0.960000 0.960000 1.040000 1.040000 1.040000 1.040000 1.040000 1.040000 1.120000 1.120000 1.120000 1.120000 1.120000 1.120000 1.200000 1.200000 1.200000 1.200000 1.200000 1.200000 1.280000 1.280000 1.280000 1.280000 1.280000 1.280000 1.360000 1.360000 1.360000 1.360000 1.360000 1.360000 1.440000 1.440000 1.440000 1.440000 1.440000 1.440000 1.520000 1.520000 1.520000 1.520000 1.520000 1.520000 1.600000 1.600000 1.600000 1.600000 1.600000 1.600000 1.680000 1.680000 1.680000 1.680000 1.680000 1.680000 1.760000 1.760000 1.760000 1.760000 1.760000 1.760000 1.840000 1.840000 1.840000 1.840000 1.840000 1.840000 1.920000 1.920000 1.920000 1.920000 1.920000 1.920000 2.000000 2.000000 2.000000 2.000000 2.000000 2.000000 2.080000 2.080000 2.080000 2.080000 2.080000 2.080000 2.160000 2.160000 2.160000 2.160000 2.160000 2.160000 2.240000 2.240000 2.240000 2.240000 2.240000 2.240000 2.320000 2.320000 2.320000 2.320000 2.320000 2.320000 2.400000 2.400000 2.400000 2.400000 2.400000 2.400000 2.480000 2.480000 2.480000 2.480000 2.480000 2.480000 2.560000 2.560000 2.560000 2.560000 2.560000 2.560000 2.640000 2.640000 2.640000 2.640000 2.640000 2.640000 2.720000 2.720000 2.720000 2.720000 2.720000 2.720000 2.800000 2.800000 2.800000 2.800000 2.800000 2.800000 2.880000 2.880000 2.880000 2.880000 2.880000 2.880000 2.960000 2.960000 2.960000 2.960000 2.960000 2.960000 3.040000 3.040000 3.040000 3.040000 3.040000 3.040000 3.120000 3.120000 3.120000 3.120000 3.120000 3.120000 3.200000 3.200000 3.200000 3.200000 3.200000 3.200000 3.280000 3.280000 3.280000 3.280000 3.280000 3.280000 3.360000 3.360000 3.360000 3.360000 3.360000 3.360000 3.440000 3.440000 3.440000 3.440000 3.440000 3.440000 3.520000 3.520000 3.520000 3.520000 3.520000 3.520000 3.600000 3.600000 3.600000 3.600000 3.600000 3.600000 3.680000 3.680000 3.680000 3.680000 3.680000 3.680000 3.760000 3.760000 3.760000 3.760000 3.760000 3.760000 3.840000 3.840000 3.840000 3.840000 3.840000 3.840000 3.920000 3.920000 3.920000 3.920000 3.920000 3.920000 4.000000 4.000000 4.000000 4.000000 4.000000 4.000000
0.000000 0.000000 0.000000 0.000000 0.000000 0.000000 0.000000 0.000000 0.000000 0.000000 0.000000 0.000000 0.000000 0.000000 0.000000 0.000000 0.000000 0.000000 0.000000 0.000000 0.000000 0.000000 0.000000 0.000000 0.000000 0.000000 0.000000 0.000000 0.000000 0.000000 0.000000 0.000000 0.000000 0.000000 0.000000 0.000000 0.000000 0.000000 0.000000 0.000000 0.000000 0.000000 0.000000 0.000000 0.000000 0.000000 0.000000 0.000000 0.000000 0.000000 0.000000 0.000000 0.000000 0.000000 0.000000 0.000000 0.000000 0.000000 0.000000 0.000000 0.000000 0.000000 0.000000 0.000000 0.000000 0.000000 0.000000 0.000000 0.000000 0.000000 0.000000 0.000000 0.000000 0.000000 0.000000 0.000000 0.000000 0.000000 0.000000 0.000000 0.000000 0.000000 0.000000 0.000000 0.000000 0.000000 0.000000 0.000000 0.000000 0.000000 0.000000 0.000000 0.000000 0.000000 0.000000 0.000000 0.000000 0.000000 0.000000 0.000000 0.000000 0.000000 0.000000 0.000000 0.000000 0.000000 0.000000 0.000000 0.000000 0.000000 0.000000 0.000000 0.000000 0.000000 0.000000 0.000000 0.000000 0.000000 0.000000 0.000000 0.000000 0.000000 0.000000 0.000000 0.000000 0.000000 0.000000 0.000000 0.000000 0.000000 0.000000 0.000000 0.000000 0.000000 0.000000 0.000000 0.000000 0.000000 0.000000 0.000000 0.000000 0.000000 0.000000 0.000000 0.000000 0.000000 0.000000 0.000000 0.000000 0.000000 0.000000 0.000000 0.000000 0.000000 0.000000 0.000000 0.000000 0.000000 0.000000 0.000000 0.000000 0.000000 0.000000 0.000000 0.000000 0.000000 0.000000 0.000000 0.000000 0.000000 0.000000 0.000000 0.000000 0.000000 0.000000 0.000000 0.000000 0.000000 0.000000 0.000000 0.000000 0.000000 0.000000 0.000000 0.000000 0.000000 0.000000 0.000000 0.000000 0.000000 0.000000 0.000000 0.000000 0.000000 0.000000 0.000000 0.000000 0.000000 0.000000 0.000000 0.000000 0.000000 0.000000 0.000000 0.000000 0.000000 0.000000 0.000000 0.000000 0.000000 0.000000 0.000000 0.000000 0.000000 0.000000 0.000000 0.000000 0.000000 0.000000 0.000000 0.000000 0.000000 0.000000 0.000000 0.000000 0.000000 0.000000 0.000000 0.000000 0.000000 0.000000 0.000000 0.000000 0.000000 0.000000 0.000000 0.000000 0.000000 0.000000 0.000000 0.000000 0.000000 0.000000 0.000000 0.000000 0.000000 0.000000 0.000000 0.000000 0.000000 0.000000 0.000000 0.000000 0.000000 0.000000 0.000000 0.000000 0.000000 0.000000 0.000000 0.000000 0.000000 0.000000 0.000000 0.000000 0.000000 0.000000 0.000000 0.000000 0.000000 0.000000 0.000000 0.000000 0.000000 0.000000 0.000000 0.000000 0.000000 0.000000 0.000000 0.000000 0.000000 0.000000 0.000000 0.000000 0.000000 0.000000 0.000000 0.000000 0.000000 0.000000 0.000000 0.000000 0.000000 0.000000 0.000000 0.000000 0.000000 0.000000 0.000000 0.000000 0.000000 0.000000 0.000000 0.000000 0.000000
0.057632 0.083065 0.099305 0.110064 0.116304 0.057624 0.083053 0.099291 0.110048 0.116287 0.057609 0.083030 0.099262 0.110015 0.116251 0.057585 0.082995 0.099219 0.109966 0.116198 0.057554 0.082948 0.099160 0.109899 0.116127 0.057515 0.082889 0.099087 0.109816 0.116038 0.057467 0.082818 0.098999 0.109716 0.115930 0.057411 0.082734 0.098895 0.109598 0.115802 0.057347 0.082637 0.098776 0.109461 0.115656 0.057274 0.082527 0.098639 0.109306 0.115489 0.057191 0.082403 0.098486 0.109131 0.115301 0.057100 0.082265 0.098315 0.108936 0.115091 0.056998 0.082112 0.098125 0.108720 0.114859 0.056886 0.081944 0.097917 0.108482 0.114602 0.056764 0.081759 0.097688 0.108221 0.114322 0.056630 0.081558 0.097438 0.107936 0.114014 0.056484 0.081338 0.097165 0.107625 0.113680 0.056326 0.081100 0.096869 0.107287 0.113316 0.056155 0.080841 0.096548 0.106921 0.112921 0.055970 0.080561 0.096200 0.106523 0.112493 0.055770 0.080259 0.095823 0.106093 0.112029 0.055554 0.079932 0.095417 0.105628 0.111528 0.055321 0.079579 0.094977 0.105125 0.110986 0.055070 0.079197 0.094502 0.104582 0.110400 0.054799 0.078786 0.093988 0.103994 0.109766 0.054506 0.078342 0.093434 0.103359 0.109081 0.054191 0.077862 0.092834 0.102672 0.108340 0.053850 0.077343 0.092186 0.101929 0.107538 0.053483 0.076782 0.091484 0.101123 0.106668 0.053085 0.076174 0.090723 0.100250 0.105725 0.052655 0.075516 0.089896 0.099302 0.104701 0.052188 0.074800 0.088998 0.098270 0.103587 0.051681 0.074022 0.088020 0.097146 0.102373 0.051129 0.073173 0.086953 0.095919 0.101047 0.050528 0.072246 0.085785 0.094576 0.099597 0.049870 0.071230 0.084504 0.093102 0.098005 0.049148 0.070112 0.083095 0.091481 0.096254 0.048354 0.068880 0.081538 0.089690 0.094322 0.047476 0.067514 0.079812 0.087705 0.092180 0.046500 0.065992 0.077888 0.085494 0.089798 0.045410 0.064287 0.075733 0.083021 0.087136 0.044182 0.062363 0.073303 0.080235 0.084142 0.042788 0.060172 0.070539 0.077077 0.080755 0.041185 0.057651 0.067368 0.073465 0.076890 0.039316 0.054709 0.063684 0.069288 0.072436 0.037091 0.051214 0.059339 0.064391 0.067233 0.034363 0.046961 0.054106 0.058539 0.061040 0.030871 0.041601 0.047610 0.051339 0.053458 0.026071 0.034460 0.039127 0.042038 0.043712 0.018501 0.023824 0.026809 0.028691 0.029793 