Variables="X","Y","Z","GAMMA"
ZONE T="WING" i=6,j=51,k=1, ZONETYPE=Ordered
DATAPACKING=BLOCK
VARLOCATION=([4]=CELLCENTERED)
0.000000 0.209657 0.419314 0.628971 0.838628 1.048285 0.000000 0.205464 0.410928 0.616391 0.821855 1.027319 0.000000 0.201271 0.402541 0.603812 0.805083 1.006353 0.000000 0.197078 0.394155 0.591233 0.788310 0.985388 0.000000 0.192884 0.385769 0.578653 0.771538 0.964422 0.000000 0.188691 0.377383 0.566074 0.754765 0.943456 0.000000 0.184498 0.368996 0.553494 0.737993 0.922491 0.000000 0.180305 0.360610 0.540915 0.721220 0.901525 0.000000 0.176112 0.352224 0.528336 0.704447 0.880559 0.000000 0.171919 0.343837 0.515756 0.687675 0.859594 0.000000 0.167726 0.335451 0.503177 0.670902 0.838628 0.000000 0.163532 0.327065 0.490597 0.654130 0.817662 0.000000 0.159339 0.318679 0.478018 0.637357 0.796696 0.000000 0.155146 0.310292 0.465438 0.620585 0.775731 0.000000 0.150953 0.301906 0.452859 0.603812 0.754765 0.000000 0.146760 0.293520 0.440280 0.587040 0.733799 0.000000 0.142567 0.285133 0.427700 0.570267 0.712834 0.000000 0.138374 0.276747 0.415121 0.553494 0.691868 0.000000 0.134180 0.268361 0.402541 0.536722 0.670902 0.000000 0.129987 0.259975 0.389962 0.519949 0.649937 0.000000 0.125794 0.251588 0.377383 0.503177 0.628971 0.000000 0.121601 0.243202 0.364803 0.486404 0.608005 0.000000 0.117408 0.234816 0.352224 0.469632 0.587040 0.000000 0.113215 0.226430 0.339644 0.452859 0.566074 0.000000 0.109022 0.218043 0.327065 0.436086 0.545108 0.000000 0.104828 0.209657 0.314485 0.419314 0.524142 0.000000 0.100635 0.201271 0.301906 0.402541 0.503177 0.000000 0.096442 0.192884 0.289327 0.385769 0.482211 0.000000 0.092249 0.184498 0.276747 0.368996 0.461245 0.000000 0.088056 0.176112 0.264168 0.352224 0.440280 0.000000 0.083863 0.167726 0.251588 0.335451 0.419314 0.000000 0.079670 0.159339 0.239009 0.318679 0.398348 0.000000 0.075477 0.150953 0.226430 0.301906 0.377383 0.000000 0.071283 0.142567 0.213850 0.285133 0.356417 0.000000 0.067090 0.134180 0.201271 0.268361 0.335451 0.000000 0.062897 0.125794 0.188691 0.251588 0.314485 0.000000 0.058704 0.117408 0.176112 0.234816 0.293520 0.000000 0.054511 0.109022 0.163532 0.218043 0.272554 0.000000 0.050318 0.100635 0.150953 0.201271 0.251588 0.000000 0.046125 0.092249 0.138374 0.184498 0.230623 0.000000 0.041931 0.083863 0.125794 0.167726 0.209657 0.000000 0.037738 0.075477 0.113215 0.150953 0.188691 0.000000 0.033545 0.067090 0.100635 0.134180 0.167726 0.000000 0.029352 0.058704 0.088056 0.117408 0.146760 0.000000 0.025159 0.050318 0.075477 0.100635 0.125794 0.000000 0.020966 0.041931 0.062897 0.083863 0.104828 0.000000 0.016773 0.033545 0.050318 0.067090 0.083863 0.000000 0.012579 0.025159 0.037738 0.050318 0.062897 0.000000 0.008386 0.016773 0.025159 0.033545 0.041931 0.000000 0.004193 0.008386 0.012579 0.016773 0.020966 0.000000 0.000000 0.000000 0.000000 0.000000 0.000000
0.000000 0.000000 0.000000 0.000000 0.000000 0.000000 0.072800 0.072800 0.072800 0.072800 0.072800 0.072800 0.145600 0.145600 0.145600 0.145600 0.145600 0.145600 0.218400 0.218400 0.218400 0.218400 0.218400 0.218400 0.291200 0.291200 0.291200 0.291200 0.291200 0.291200 0.364000 0.364000 0.364000 0.364000 0.364000 0.364000 0.436800 0.436800 0.436800 0.436800 0.436800 0.436800 0.509600 0.509600 0.509600 0.509600 0.509600 0.509600 0.582400 0.582400 0.582400 0.582400 0.582400 0.582400 0.655200 0.655200 0.655200 0.655200 0.655200 0.655200 0.728000 0.728000 0.728000 0.728000 0.728000 0.728000 0.800800 0.800800 0.800800 0.800800 0.800800 0.800800 0.873600 0.873600 0.873600 0.873600 0.873600 0.873600 0.946400 0.946400 0.946400 0.946400 0.946400 0.946400 1.019200 1.019200 1.019200 1.019200 1.019200 1.019200 1.092000 1.092000 1.092000 1.092000 1.092000 1.092000 1.164800 1.164800 1.164800 1.164800 1.164800 1.164800 1.237600 1.237600 1.237600 1.237600 1.237600 1.237600 1.310400 1.310400 1.310400 1.310400 1.310400 1.310400 1.383200 1.383200 1.383200 1.383200 1.383200 1.383200 1.456000 1.456000 1.456000 1.456000 1.456000 1.456000 1.528800 1.528800 1.528800 1.528800 1.528800 1.528800 1.601600 1.601600 1.601600 1.601600 1.601600 1.601600 1.674400 1.674400 1.674400 1.674400 1.674400 1.674400 1.747200 1.747200 1.747200 1.747200 1.747200 1.747200 1.820000 1.820000 1.820000 1.820000 1.820000 1.820000 1.892800 1.892800 1.892800 1.892800 1.892800 1.892800 1.965600 1.965600 1.965600 1.965600 1.965600 1.965600 2.038400 2.038400 2.038400 2.038400 2.038400 2.038400 2.111200 2.111200 2.111200 2.111200 2.111200 2.111200 2.184000 2.184000 2.184000 2.184000 2.184000 2.184000 2.256800 2.256800 2.256800 2.256800 2.256800 2.256800 2.329600 2.329600 2.329600 2.329600 2.329600 2.329600 2.402400 2.402400 2.402400 2.402400 2.402400 2.402400 2.475200 2.475200 2.475200 2.475200 2.475200 2.475200 2.548000 2.548000 2.548000 2.548000 2.548000 2.548000 2.620800 2.620800 2.620800 2.620800 2.620800 2.620800 2.693600 2.693600 2.693600 2.693600 2.693600 2.693600 2.766400 2.766400 2.766400 2.766400 2.766400 2.766400 2.839200 2.839200 2.839200 2.839200 2.839200 2.839200 2.912000 2.912000 2.912000 2.912000 2.912000 2.912000 2.984800 2.984800 2.984800 2.984800 2.984800 2.984800 3.057600 3.057600 3.057600 3.057600 3.057600 3.057600 3.130400 3.130400 3.130400 3.130400 3.130400 3.130400 3.203200 3.203200 3.203200 3.203200 3.203200 3.203200 3.276000 3.276000 3.276000 3.276000 3.276000 3.276000 3.348800 3.348800 3.348800 3.348800 3.348800 3.348800 3.421600 3.421600 3.421600 3.421600 3.421600 3.421600 3.494400 3.494400 3.494400 3.494400 3.494400 3.494400 3.567200 3.567200 3.567200 3.567200 3.567200 3.567200 3.640000 3.640000 3.640000 3.640000 3.640000 3.640000
0.000000 0.000000 0.000000 0.000000 0.000000 0.000000 0.000000 0.000000 0.000000 0.000000 0.000000 0.000000 0.000000 0.000000 0.000000 0.000000 0.000000 0.000000 0.000000 0.000000 0.000000 0.000000 0.000000 0.000000 0.000000 0.000000 0.000000 0.000000 0.000000 0.000000 0.000000 0.000000 0.000000 0.000000 0.000000 0.000000 0.000000 0.000000 0.000000 0.000000 0.000000 0.000000 0.000000 0.000000 0.000000 0.000000 0.000000 0.000000 0.000000 0.000000 0.000000 0.000000 0.000000 0.000000 0.000000 0.000000 0.000000 0.000000 0.000000 0.000000 0.000000 0.000000 0.000000 0.000000 0.000000 0.000000 0.000000 0.000000 0.000000 0.000000 0.000000 0.000000 0.000000 0.000000 0.000000 0.000000 0.000000 0.000000 0.000000 0.000000 0.000000 0.000000 0.000000 0.000000 0.000000 0.000000 0.000000 0.000000 0.000000 0.000000 0.000000 0.000000 0.000000 0.000000 0.000000 0.000000 0.000000 0.000000 0.000000 0.000000 0.000000 0.000000 0.000000 0.000000 0.000000 0.000000 0.000000 0.000000 0.000000 0.000000 0.000000 0.000000 0.000000 0.000000 0.000000 0.000000 0.000000 0.000000 0.000000 0.000000 0.000000 0.000000 0.000000 0.000000 0.000000 0.000000 0.000000 0.000000 0.000000 0.000000 0.000000 0.000000 0.000000 0.000000 0.000000 0.000000 0.000000 0.000000 0.000000 0.000000 0.000000 0.000000 0.000000 0.000000 0.000000 0.000000 0.000000 0.000000 0.000000 0.000000 0.000000 0.000000 0.000000 0.000000 0.000000 0.000000 0.000000 0.000000 0.000000 0.000000 0.000000 0.000000 0.000000 0.000000 0.000000 0.000000 0.000000 0.000000 0.000000 0.000000 0.000000 0.000000 0.000000 0.000000 0.000000 0.000000 0.000000 0.000000 0.000000 0.000000 0.000000 0.000000 0.000000 0.000000 0.000000 0.000000 0.000000 0.000000 0.000000 0.000000 0.000000 0.000000 0.000000 0.000000 0.000000 0.000000 0.000000 0.000000 0.000000 0.000000 0.000000 0.000000 0.000000 0.000000 0.000000 0.000000 0.000000 0.000000 0.000000 0.000000 0.000000 0.000000 0.000000 0.000000 0.000000 0.000000 0.000000 0.000000 0.000000 0.000000 0.000000 0.000000 0.000000 0.000000 0.000000 0.000000 0.000000 0.000000 0.000000 0.000000 0.000000 0.000000 0.000000 0.000000 0.000000 0.000000 0.000000 0.000000 0.000000 0.000000 0.000000 0.000000 0.000000 0.000000 0.000000 0.000000 0.000000 0.000000 0.000000 0.000000 0.000000 0.000000 0.000000 0.000000 0.000000 0.000000 0.000000 0.000000 0.000000 0.000000 0.000000 0.000000 0.000000 0.000000 0.000000 0.000000 0.000000 0.000000 0.000000 0.000000 0.000000 0.000000 0.000000 0.000000 0.000000 0.000000 0.000000 0.000000 0.000000 0.000000 0.000000 0.000000 0.000000 0.000000 0.000000 0.000000 0.000000 0.000000 0.000000 0.000000 0.000000 0.000000 0.000000 0.000000 0.000000 0.000000 0.000000 0.000000 0.000000 0.000000 0.000000 0.000000 0.000000 0.000000 0.000000 0.000000
0.050235 0.071816 0.085104 0.093492 0.098031 0.049918 0.071362 0.084613 0.093032 0.097656 0.049492 0.070776 0.083970 0.092401 0.097084 0.048998 0.070104 0.083224 0.091649 0.096364 0.048453 0.069362 0.082393 0.090792 0.095518 0.047864 0.068559 0.081483 0.089840 0.094562 0.047238 0.067699 0.080503 0.088804 0.093508 0.046578 0.066787 0.079457 0.087688 0.092365 0.045887 0.065827 0.078349 0.086500 0.091141 0.045166 0.064821 0.077183 0.085243 0.089840 0.044418 0.063773 0.075964 0.083923 0.088470 0.043644 0.062684 0.074692 0.082543 0.087034 0.042845 0.061558 0.073373 0.081107 0.085536 0.042022 0.060395 0.072008 0.079617 0.083979 0.041177 0.059198 0.070599 0.078077 0.082368 0.040310 0.057967 0.069149 0.076489 0.080705 0.039423 0.056705 0.067659 0.074856 0.078992 0.038516 0.055413 0.066131 0.073179 0.077232 0.037589 0.054092 0.064567 0.071460 0.075427 0.036644 0.052743 0.062968 0.069701 0.073579 0.035681 0.051367 0.061335 0.067903 0.071689 0.034701 0.049965 0.059671 0.066069 0.069759 0.033704 0.048537 0.057974 0.064199 0.067791 0.032691 0.047085 0.056248 0.062295 0.065785 0.031662 0.045609 0.054492 0.060357 0.063744 0.030617 0.044110 0.052708 0.058386 0.061667 0.029557 0.042589 0.050896 0.056385 0.059557 0.028482 0.041045 0.049056 0.054352 0.057414 0.027393 0.039480 0.047190 0.052289 0.055238 0.026289 0.037893 0.045298 0.050196 0.053030 0.025172 0.036286 0.043380 0.048075 0.050792 0.024040 0.034658 0.041437 0.045925 0.048523 0.022894 0.033009 0.039469 0.043747 0.046223 0.021734 0.031340 0.037476 0.041540 0.043894 0.020561 0.029650 0.035458 0.039306 0.041535 0.019373 0.027940 0.033416 0.037044 0.039146 0.018172 0.026209 0.031348 0.034753 0.036727 0.016956 0.024458 0.029255 0.032435 0.034278 0.015726 0.022686 0.027137 0.030087 0.031798 0.014481 0.020891 0.024992 0.027711 0.029287 0.013221 0.019075 0.022820 0.025303 0.026743 0.011945 0.017235 0.020620 0.022865 0.024166 0.010652 0.015370 0.018390 0.020393 0.021553 0.009340 0.013479 0.016128 0.017885 0.018903 0.008009 0.011559 0.013831 0.015338 0.016211 0.006655 0.009606 0.011495 0.012748 0.013473 0.005275 0.007616 0.009114 0.010107 0.010682 0.003864 0.005579 0.006677 0.007404 0.007825 0.002409 0.003479 0.004164 0.004618 0.004881 0.000884 0.001277 0.001529 0.001696 0.001792 