Variables="X","Y","Z","GAMMA"
ZONE T="WING" i=6,j=51,k=1, ZONETYPE=Ordered
DATAPACKING=BLOCK
VARLOCATION=([4]=CELLCENTERED)
0.000000 0.200000 0.400000 0.600000 0.800000 1.000000 0.000000 0.200000 0.400000 0.600000 0.800000 1.000000 0.000000 0.200000 0.400000 0.600000 0.800000 1.000000 0.000000 0.200000 0.400000 0.600000 0.800000 1.000000 0.000000 0.200000 0.400000 0.600000 0.800000 1.000000 0.000000 0.200000 0.400000 0.600000 0.800000 1.000000 0.000000 0.200000 0.400000 0.600000 0.800000 1.000000 0.000000 0.200000 0.400000 0.600000 0.800000 1.000000 0.000000 0.200000 0.400000 0.600000 0.800000 1.000000 0.000000 0.200000 0.400000 0.600000 0.800000 1.000000 0.000000 0.200000 0.400000 0.600000 0.800000 1.000000 0.000000 0.200000 0.400000 0.600000 0.800000 1.000000 0.000000 0.200000 0.400000 0.600000 0.800000 1.000000 0.000000 0.200000 0.400000 0.600000 0.800000 1.000000 0.000000 0.200000 0.400000 0.600000 0.800000 1.000000 0.000000 0.200000 0.400000 0.600000 0.800000 1.000000 0.000000 0.200000 0.400000 0.600000 0.800000 1.000000 0.000000 0.200000 0.400000 0.600000 0.800000 1.000000 0.000000 0.200000 0.400000 0.600000 0.800000 1.000000 0.000000 0.200000 0.400000 0.600000 0.800000 1.000000 0.000000 0.200000 0.400000 0.600000 0.800000 1.000000 0.000000 0.200000 0.400000 0.600000 0.800000 1.000000 0.000000 0.200000 0.400000 0.600000 0.800000 1.000000 0.000000 0.200000 0.400000 0.600000 0.800000 1.000000 0.000000 0.200000 0.400000 0.600000 0.800000 1.000000 0.000000 0.200000 0.400000 0.600000 0.800000 1.000000 0.000000 0.200000 0.400000 0.600000 0.800000 1.000000 0.000000 0.200000 0.400000 0.600000 0.800000 1.000000 0.000000 0.200000 0.400000 0.600000 0.800000 1.000000 0.000000 0.200000 0.400000 0.600000 0.800000 1.000000 0.000000 0.200000 0.400000 0.600000 0.800000 1.000000 0.000000 0.200000 0.400000 0.600000 0.800000 1.000000 0.000000 0.200000 0.400000 0.600000 0.800000 1.000000 0.000000 0.200000 0.400000 0.600000 0.800000 1.000000 0.000000 0.200000 0.400000 0.600000 0.800000 1.000000 0.000000 0.200000 0.400000 0.600000 0.800000 1.000000 0.000000 0.200000 0.400000 0.600000 0.800000 1.000000 0.000000 0.200000 0.400000 0.600000 0.800000 1.000000 0.000000 0.200000 0.400000 0.600000 0.800000 1.000000 0.000000 0.200000 0.400000 0.600000 0.800000 1.000000 0.000000 0.200000 0.400000 0.600000 0.800000 1.000000 0.000000 0.200000 0.400000 0.600000 0.800000 1.000000 0.000000 0.200000 0.400000 0.600000 0.800000 1.000000 0.000000 0.200000 0.400000 0.600000 0.800000 1.000000 0.000000 0.200000 0.400000 0.600000 0.800000 1.000000 0.000000 0.200000 0.400000 0.600000 0.800000 1.000000 0.000000 0.200000 0.400000 0.600000 0.800000 1.000000 0.000000 0.200000 0.400000 0.600000 0.800000 1.000000 0.000000 0.200000 0.400000 0.600000 0.800000 1.000000 0.000000 0.200000 0.400000 0.600000 0.800000 1.000000 0.000000 0.200000 0.400000 0.600000 0.800000 1.000000
0.000000 0.000000 0.000000 0.000000 0.000000 0.000000 0.072800 0.072800 0.072800 0.072800 0.072800 0.072800 0.145600 0.145600 0.145600 0.145600 0.145600 0.145600 0.218400 0.218400 0.218400 0.218400 0.218400 0.218400 0.291200 0.291200 0.291200 0.291200 0.291200 0.291200 0.364000 0.364000 0.364000 0.364000 0.364000 0.364000 0.436800 0.436800 0.436800 0.436800 0.436800 0.436800 0.509600 0.509600 0.509600 0.509600 0.509600 0.509600 0.582400 0.582400 0.582400 0.582400 0.582400 0.582400 0.655200 0.655200 0.655200 0.655200 0.655200 0.655200 0.728000 0.728000 0.728000 0.728000 0.728000 0.728000 0.800800 0.800800 0.800800 0.800800 0.800800 0.800800 0.873600 0.873600 0.873600 0.873600 0.873600 0.873600 0.946400 0.946400 0.946400 0.946400 0.946400 0.946400 1.019200 1.019200 1.019200 1.019200 1.019200 1.019200 1.092000 1.092000 1.092000 1.092000 1.092000 1.092000 1.164800 1.164800 1.164800 1.164800 1.164800 1.164800 1.237600 1.237600 1.237600 1.237600 1.237600 1.237600 1.310400 1.310400 1.310400 1.310400 1.310400 1.310400 1.383200 1.383200 1.383200 1.383200 1.383200 1.383200 1.456000 1.456000 1.456000 1.456000 1.456000 1.456000 1.528800 1.528800 1.528800 1.528800 1.528800 1.528800 1.601600 1.601600 1.601600 1.601600 1.601600 1.601600 1.674400 1.674400 1.674400 1.674400 1.674400 1.674400 1.747200 1.747200 1.747200 1.747200 1.747200 1.747200 1.820000 1.820000 1.820000 1.820000 1.820000 1.820000 1.892800 1.892800 1.892800 1.892800 1.892800 1.892800 1.965600 1.965600 1.965600 1.965600 1.965600 1.965600 2.038400 2.038400 2.038400 2.038400 2.038400 2.038400 2.111200 2.111200 2.111200 2.111200 2.111200 2.111200 2.184000 2.184000 2.184000 2.184000 2.184000 2.184000 2.256800 2.256800 2.256800 2.256800 2.256800 2.256800 2.329600 2.329600 2.329600 2.329600 2.329600 2.329600 2.402400 2.402400 2.402400 2.402400 2.402400 2.402400 2.475200 2.475200 2.475200 2.475200 2.475200 2.475200 2.548000 2.548000 2.548000 2.548000 2.548000 2.548000 2.620800 2.620800 2.620800 2.620800 2.620800 2.620800 2.693600 2.693600 2.693600 2.693600 2.693600 2.693600 2.766400 2.766400 2.766400 2.766400 2.766400 2.766400 2.839200 2.839200 2.839200 2.839200 2.839200 2.839200 2.912000 2.912000 2.912000 2.912000 2.912000 2.912000 2.984800 2.984800 2.984800 2.984800 2.984800 2.984800 3.057600 3.057600 3.057600 3.057600 3.057600 3.057600 3.130400 3.130400 3.130400 3.130400 3.130400 3.130400 3.203200 3.203200 3.203200 3.203200 3.203200 3.203200 3.276000 3.276000 3.276000 3.276000 3.276000 3.276000 3.348800 3.348800 3.348800 3.348800 3.348800 3.348800 3.421600 3.421600 3.421600 3.421600 3.421600 3.421600 3.494400 3.494400 3.494400 3.494400 3.494400 3.494400 3.567200 3.567200 3.567200 3.567200 3.567200 3.567200 3.640000 3.640000 3.640000 3.640000 3.640000 3.640000
0.000000 0.000000 0.000000 0.000000 0.000000 0.000000 0.000000 0.000000 0.000000 0.000000 0.000000 0.000000 0.000000 0.000000 0.000000 0.000000 0.000000 0.000000 0.000000 0.000000 0.000000 0.000000 0.000000 0.000000 0.000000 0.000000 0.000000 0.000000 0.000000 0.000000 0.000000 0.000000 0.000000 0.000000 0.000000 0.000000 0.000000 0.000000 0.000000 0.000000 0.000000 0.000000 0.000000 0.000000 0.000000 0.000000 0.000000 0.000000 0.000000 0.000000 0.000000 0.000000 0.000000 0.000000 0.000000 0.000000 0.000000 0.000000 0.000000 0.000000 0.000000 0.000000 0.000000 0.000000 0.000000 0.000000 0.000000 0.000000 0.000000 0.000000 0.000000 0.000000 0.000000 0.000000 0.000000 0.000000 0.000000 0.000000 0.000000 0.000000 0.000000 0.000000 0.000000 0.000000 0.000000 0.000000 0.000000 0.000000 0.000000 0.000000 0.000000 0.000000 0.000000 0.000000 0.000000 0.000000 0.000000 0.000000 0.000000 0.000000 0.000000 0.000000 0.000000 0.000000 0.000000 0.000000 0.000000 0.000000 0.000000 0.000000 0.000000 0.000000 0.000000 0.000000 0.000000 0.000000 0.000000 0.000000 0.000000 0.000000 0.000000 0.000000 0.000000 0.000000 0.000000 0.000000 0.000000 0.000000 0.000000 0.000000 0.000000 0.000000 0.000000 0.000000 0.000000 0.000000 0.000000 0.000000 0.000000 0.000000 0.000000 0.000000 0.000000 0.000000 0.000000 0.000000 0.000000 0.000000 0.000000 0.000000 0.000000 0.000000 0.000000 0.000000 0.000000 0.000000 0.000000 0.000000 0.000000 0.000000 0.000000 0.000000 0.000000 0.000000 0.000000 0.000000 0.000000 0.000000 0.000000 0.000000 0.000000 0.000000 0.000000 0.000000 0.000000 0.000000 0.000000 0.000000 0.000000 0.000000 0.000000 0.000000 0.000000 0.000000 0.000000 0.000000 0.000000 0.000000 0.000000 0.000000 0.000000 0.000000 0.000000 0.000000 0.000000 0.000000 0.000000 0.000000 0.000000 0.000000 0.000000 0.000000 0.000000 0.000000 0.000000 0.000000 0.000000 0.000000 0.000000 0.000000 0.000000 0.000000 0.000000 0.000000 0.000000 0.000000 0.000000 0.000000 0.000000 0.000000 0.000000 0.000000 0.000000 0.000000 0.000000 0.000000 0.000000 0.000000 0.000000 0.000000 0.000000 0.000000 0.000000 0.000000 0.000000 0.000000 0.000000 0.000000 0.000000 0.000000 0.000000 0.000000 0.000000 0.000000 0.000000 0.000000 0.000000 0.000000 0.000000 0.000000 0.000000 0.000000 0.000000 0.000000 0.000000 0.000000 0.000000 0.000000 0.000000 0.000000 0.000000 0.000000 0.000000 0.000000 0.000000 0.000000 0.000000 0.000000 0.000000 0.000000 0.000000 0.000000 0.000000 0.000000 0.000000 0.000000 0.000000 0.000000 0.000000 0.000000 0.000000 0.000000 0.000000 0.000000 0.000000 0.000000 0.000000 0.000000 0.000000 0.000000 0.000000 0.000000 0.000000 0.000000 0.000000 0.000000 0.000000 0.000000 0.000000 0.000000 0.000000 0.000000 0.000000 0.000000 0.000000 0.000000
0.056651 0.081609 0.097521 0.108047 0.114144 0.056642 0.081597 0.097505 0.108030 0.114126 0.056626 0.081572 0.097475 0.107995 0.114088 0.056601 0.081534 0.097428 0.107942 0.114031 0.056568 0.081484 0.097366 0.107871 0.113955 0.056526 0.081422 0.097288 0.107782 0.113859 0.056476 0.081346 0.097194 0.107675 0.113744 0.056417 0.081257 0.097084 0.107548 0.113608 0.056349 0.081154 0.096956 0.107403 0.113451 0.056271 0.081037 0.096811 0.107237 0.113272 0.056184 0.080905 0.096647 0.107051 0.113071 0.056087 0.080759 0.096465 0.106843 0.112848 0.055980 0.080596 0.096264 0.106613 0.112600 0.055861 0.080418 0.096042 0.106359 0.112327 0.055732 0.080223 0.095799 0.106082 0.112028 0.055591 0.080009 0.095534 0.105779 0.111701 0.055438 0.079777 0.095245 0.105449 0.111345 0.055272 0.079526 0.094932 0.105090 0.110959 0.055092 0.079253 0.094592 0.104702 0.110540 0.054898 0.078958 0.094224 0.104281 0.110086 0.054688 0.078640 0.093827 0.103827 0.109596 0.054462 0.078296 0.093399 0.103336 0.109067 0.054218 0.077926 0.092936 0.102806 0.108495 0.053956 0.077527 0.092437 0.102234 0.107878 0.053674 0.077096 0.091899 0.101617 0.107212 0.053370 0.076632 0.091318 0.100951 0.106493 0.053042 0.076132 0.090692 0.100232 0.105716 0.052689 0.075593 0.090015 0.099455 0.104878 0.052309 0.075010 0.089284 0.098616 0.103971 0.051898 0.074380 0.088493 0.097707 0.102989 0.051455 0.073699 0.087637 0.096723 0.101926 0.050975 0.072961 0.086708 0.095654 0.100772 0.050455 0.072159 0.085699 0.094494 0.099518 0.049891 0.071288 0.084600 0.093230 0.098152 0.049277 0.070338 0.083402 0.091850 0.096663 0.048607 0.069299 0.082090 0.090342 0.095034 0.047874 0.068160 0.080652 0.088686 0.093247 0.047069 0.066907 0.079068 0.086865 0.091283 0.046182 0.065523 0.077317 0.084853 0.089115 0.045199 0.063985 0.075373 0.082621 0.086712 0.044103 0.062267 0.073203 0.080133 0.084038 0.042873 0.060335 0.070764 0.077345 0.081046 0.041480 0.058142 0.068004 0.074197 0.077677 0.039883 0.055628 0.064850 0.070615 0.073852 0.038025 0.052706 0.061204 0.066495 0.069467 0.035819 0.049251 0.056927 0.061692 0.064373 0.033124 0.045068 0.051807 0.055984 0.058345 0.029687 0.039829 0.045492 0.049007 0.051008 0.024988 0.032902 0.037303 0.040049 0.041631 0.017649 0.022677 0.025499 0.027278 0.028321 