Variables="X","Y","Z","GAMMA"
ZONE T="WING" i=6,j=51,k=1, ZONETYPE=Ordered
DATAPACKING=BLOCK
VARLOCATION=([4]=CELLCENTERED)
0.000000 0.333333 0.666667 1.000000 1.333333 1.666667 0.000000 0.330667 0.661333 0.992000 1.322667 1.653333 0.000000 0.328000 0.656000 0.984000 1.312000 1.640000 0.000000 0.325333 0.650667 0.976000 1.301333 1.626667 0.000000 0.322667 0.645333 0.968000 1.290667 1.613333 0.000000 0.320000 0.640000 0.960000 1.280000 1.600000 0.000000 0.317333 0.634667 0.952000 1.269333 1.586667 0.000000 0.314667 0.629333 0.944000 1.258667 1.573333 0.000000 0.312000 0.624000 0.936000 1.248000 1.560000 0.000000 0.309333 0.618667 0.928000 1.237333 1.546667 0.000000 0.306667 0.613333 0.920000 1.226667 1.533333 0.000000 0.304000 0.608000 0.912000 1.216000 1.520000 0.000000 0.301333 0.602667 0.904000 1.205333 1.506667 0.000000 0.298667 0.597333 0.896000 1.194667 1.493333 0.000000 0.296000 0.592000 0.888000 1.184000 1.480000 0.000000 0.293333 0.586667 0.880000 1.173333 1.466667 0.000000 0.290667 0.581333 0.872000 1.162667 1.453333 0.000000 0.288000 0.576000 0.864000 1.152000 1.440000 0.000000 0.285333 0.570667 0.856000 1.141333 1.426667 0.000000 0.282667 0.565333 0.848000 1.130667 1.413333 0.000000 0.280000 0.560000 0.840000 1.120000 1.400000 0.000000 0.277333 0.554667 0.832000 1.109333 1.386667 0.000000 0.274667 0.549333 0.824000 1.098667 1.373333 0.000000 0.272000 0.544000 0.816000 1.088000 1.360000 0.000000 0.269333 0.538667 0.808000 1.077333 1.346667 0.000000 0.266667 0.533333 0.800000 1.066667 1.333333 0.000000 0.264000 0.528000 0.792000 1.056000 1.320000 0.000000 0.261333 0.522667 0.784000 1.045333 1.306667 0.000000 0.258667 0.517333 0.776000 1.034667 1.293333 0.000000 0.256000 0.512000 0.768000 1.024000 1.280000 0.000000 0.253333 0.506667 0.760000 1.013333 1.266667 0.000000 0.250667 0.501333 0.752000 1.002667 1.253333 0.000000 0.248000 0.496000 0.744000 0.992000 1.240000 0.000000 0.245333 0.490667 0.736000 0.981333 1.226667 0.000000 0.242667 0.485333 0.728000 0.970667 1.213333 0.000000 0.240000 0.480000 0.720000 0.960000 1.200000 0.000000 0.237333 0.474667 0.712000 0.949333 1.186667 0.000000 0.234667 0.469333 0.704000 0.938667 1.173333 0.000000 0.232000 0.464000 0.696000 0.928000 1.160000 0.000000 0.229333 0.458667 0.688000 0.917333 1.146667 0.000000 0.226667 0.453333 0.680000 0.906667 1.133333 0.000000 0.224000 0.448000 0.672000 0.896000 1.120000 0.000000 0.221333 0.442667 0.664000 0.885333 1.106667 0.000000 0.218667 0.437333 0.656000 0.874667 1.093333 0.000000 0.216000 0.432000 0.648000 0.864000 1.080000 0.000000 0.213333 0.426667 0.640000 0.853333 1.066667 0.000000 0.210667 0.421333 0.632000 0.842667 1.053333 0.000000 0.208000 0.416000 0.624000 0.832000 1.040000 0.000000 0.205333 0.410667 0.616000 0.821333 1.026667 0.000000 0.202667 0.405333 0.608000 0.810667 1.013333 0.000000 0.200000 0.400000 0.600000 0.800000 1.000000
0.000000 0.000000 0.000000 0.000000 0.000000 0.000000 0.072800 0.072800 0.072800 0.072800 0.072800 0.072800 0.145600 0.145600 0.145600 0.145600 0.145600 0.145600 0.218400 0.218400 0.218400 0.218400 0.218400 0.218400 0.291200 0.291200 0.291200 0.291200 0.291200 0.291200 0.364000 0.364000 0.364000 0.364000 0.364000 0.364000 0.436800 0.436800 0.436800 0.436800 0.436800 0.436800 0.509600 0.509600 0.509600 0.509600 0.509600 0.509600 0.582400 0.582400 0.582400 0.582400 0.582400 0.582400 0.655200 0.655200 0.655200 0.655200 0.655200 0.655200 0.728000 0.728000 0.728000 0.728000 0.728000 0.728000 0.800800 0.800800 0.800800 0.800800 0.800800 0.800800 0.873600 0.873600 0.873600 0.873600 0.873600 0.873600 0.946400 0.946400 0.946400 0.946400 0.946400 0.946400 1.019200 1.019200 1.019200 1.019200 1.019200 1.019200 1.092000 1.092000 1.092000 1.092000 1.092000 1.092000 1.164800 1.164800 1.164800 1.164800 1.164800 1.164800 1.237600 1.237600 1.237600 1.237600 1.237600 1.237600 1.310400 1.310400 1.310400 1.310400 1.310400 1.310400 1.383200 1.383200 1.383200 1.383200 1.383200 1.383200 1.456000 1.456000 1.456000 1.456000 1.456000 1.456000 1.528800 1.528800 1.528800 1.528800 1.528800 1.528800 1.601600 1.601600 1.601600 1.601600 1.601600 1.601600 1.674400 1.674400 1.674400 1.674400 1.674400 1.674400 1.747200 1.747200 1.747200 1.747200 1.747200 1.747200 1.820000 1.820000 1.820000 1.820000 1.820000 1.820000 1.892800 1.892800 1.892800 1.892800 1.892800 1.892800 1.965600 1.965600 1.965600 1.965600 1.965600 1.965600 2.038400 2.038400 2.038400 2.038400 2.038400 2.038400 2.111200 2.111200 2.111200 2.111200 2.111200 2.111200 2.184000 2.184000 2.184000 2.184000 2.184000 2.184000 2.256800 2.256800 2.256800 2.256800 2.256800 2.256800 2.329600 2.329600 2.329600 2.329600 2.329600 2.329600 2.402400 2.402400 2.402400 2.402400 2.402400 2.402400 2.475200 2.475200 2.475200 2.475200 2.475200 2.475200 2.548000 2.548000 2.548000 2.548000 2.548000 2.548000 2.620800 2.620800 2.620800 2.620800 2.620800 2.620800 2.693600 2.693600 2.693600 2.693600 2.693600 2.693600 2.766400 2.766400 2.766400 2.766400 2.766400 2.766400 2.839200 2.839200 2.839200 2.839200 2.839200 2.839200 2.912000 2.912000 2.912000 2.912000 2.912000 2.912000 2.984800 2.984800 2.984800 2.984800 2.984800 2.984800 3.057600 3.057600 3.057600 3.057600 3.057600 3.057600 3.130400 3.130400 3.130400 3.130400 3.130400 3.130400 3.203200 3.203200 3.203200 3.203200 3.203200 3.203200 3.276000 3.276000 3.276000 3.276000 3.276000 3.276000 3.348800 3.348800 3.348800 3.348800 3.348800 3.348800 3.421600 3.421600 3.421600 3.421600 3.421600 3.421600 3.494400 3.494400 3.494400 3.494400 3.494400 3.494400 3.567200 3.567200 3.567200 3.567200 3.567200 3.567200 3.640000 3.640000 3.640000 3.640000 3.640000 3.640000
0.000000 0.000000 0.000000 0.000000 0.000000 0.000000 0.000000 0.000000 0.000000 0.000000 0.000000 0.000000 0.000000 0.000000 0.000000 0.000000 0.000000 0.000000 0.000000 0.000000 0.000000 0.000000 0.000000 0.000000 0.000000 0.000000 0.000000 0.000000 0.000000 0.000000 0.000000 0.000000 0.000000 0.000000 0.000000 0.000000 0.000000 0.000000 0.000000 0.000000 0.000000 0.000000 0.000000 0.000000 0.000000 0.000000 0.000000 0.000000 0.000000 0.000000 0.000000 0.000000 0.000000 0.000000 0.000000 0.000000 0.000000 0.000000 0.000000 0.000000 0.000000 0.000000 0.000000 0.000000 0.000000 0.000000 0.000000 0.000000 0.000000 0.000000 0.000000 0.000000 0.000000 0.000000 0.000000 0.000000 0.000000 0.000000 0.000000 0.000000 0.000000 0.000000 0.000000 0.000000 0.000000 0.000000 0.000000 0.000000 0.000000 0.000000 0.000000 0.000000 0.000000 0.000000 0.000000 0.000000 0.000000 0.000000 0.000000 0.000000 0.000000 0.000000 0.000000 0.000000 0.000000 0.000000 0.000000 0.000000 0.000000 0.000000 0.000000 0.000000 0.000000 0.000000 0.000000 0.000000 0.000000 0.000000 0.000000 0.000000 0.000000 0.000000 0.000000 0.000000 0.000000 0.000000 0.000000 0.000000 0.000000 0.000000 0.000000 0.000000 0.000000 0.000000 0.000000 0.000000 0.000000 0.000000 0.000000 0.000000 0.000000 0.000000 0.000000 0.000000 0.000000 0.000000 0.000000 0.000000 0.000000 0.000000 0.000000 0.000000 0.000000 0.000000 0.000000 0.000000 0.000000 0.000000 0.000000 0.000000 0.000000 0.000000 0.000000 0.000000 0.000000 0.000000 0.000000 0.000000 0.000000 0.000000 0.000000 0.000000 0.000000 0.000000 0.000000 0.000000 0.000000 0.000000 0.000000 0.000000 0.000000 0.000000 0.000000 0.000000 0.000000 0.000000 0.000000 0.000000 0.000000 0.000000 0.000000 0.000000 0.000000 0.000000 0.000000 0.000000 0.000000 0.000000 0.000000 0.000000 0.000000 0.000000 0.000000 0.000000 0.000000 0.000000 0.000000 0.000000 0.000000 0.000000 0.000000 0.000000 0.000000 0.000000 0.000000 0.000000 0.000000 0.000000 0.000000 0.000000 0.000000 0.000000 0.000000 0.000000 0.000000 0.000000 0.000000 0.000000 0.000000 0.000000 0.000000 0.000000 0.000000 0.000000 0.000000 0.000000 0.000000 0.000000 0.000000 0.000000 0.000000 0.000000 0.000000 0.000000 0.000000 0.000000 0.000000 0.000000 0.000000 0.000000 0.000000 0.000000 0.000000 0.000000 0.000000 0.000000 0.000000 0.000000 0.000000 0.000000 0.000000 0.000000 0.000000 0.000000 0.000000 0.000000 0.000000 0.000000 0.000000 0.000000 0.000000 0.000000 0.000000 0.000000 0.000000 0.000000 0.000000 0.000000 0.000000 0.000000 0.000000 0.000000 0.000000 0.000000 0.000000 0.000000 0.000000 0.000000 0.000000 0.000000 0.000000 0.000000 0.000000 0.000000 0.000000 0.000000 0.000000 0.000000 0.000000 0.000000 0.000000 0.000000 0.000000 0.000000 0.000000 0.000000
0.079542 0.113748 0.134909 0.148401 0.155832 0.079376 0.113501 0.134641 0.148151 0.155638 0.079138 0.113163 0.134268 0.147792 0.155330 0.078853 0.112766 0.133828 0.147356 0.154932 0.078533 0.112323 0.133333 0.146854 0.154455 0.078181 0.111839 0.132787 0.146293 0.153908 0.077803 0.111317 0.132195 0.145676 0.153295 0.077399 0.110759 0.131558 0.145006 0.152620 0.076972 0.110166 0.130877 0.144283 0.151885 0.076522 0.109539 0.130153 0.143510 0.151094 0.076051 0.108879 0.129388 0.142687 0.150247 0.075558 0.108187 0.128581 0.141817 0.149347 0.075044 0.107463 0.127735 0.140899 0.148394 0.074510 0.106707 0.126848 0.139934 0.147390 0.073956 0.105919 0.125921 0.138922 0.146334 0.073380 0.105100 0.124953 0.137863 0.145227 0.072785 0.104249 0.123946 0.136758 0.144069 0.072168 0.103366 0.122898 0.135606 0.142860 0.071531 0.102451 0.121809 0.134406 0.141599 0.070872 0.101503 0.120678 0.133158 0.140286 0.070191 0.100520 0.119505 0.131860 0.138919 0.069489 0.099504 0.118288 0.130512 0.137497 0.068763 0.098451 0.117026 0.129112 0.136019 0.068013 0.097362 0.115717 0.127658 0.134482 0.067238 0.096234 0.114359 0.126148 0.132885 0.066437 0.095066 0.112950 0.124579 0.131224 0.065610 0.093855 0.111488 0.122948 0.129497 0.064753 0.092599 0.109968 0.121252 0.127698 0.063865 0.091296 0.108389 0.119486 0.125825 0.062945 0.089942 0.106744 0.117645 0.123871 0.061990 0.088532 0.105030 0.115724 0.121831 0.060997 0.087063 0.103240 0.113717 0.119697 0.059963 0.085529 0.101368 0.111615 0.117462 0.058883 0.083924 0.099405 0.109409 0.115115 0.057754 0.082240 0.097343 0.107089 0.112646 0.056569 0.080468 0.095169 0.104641 0.110040 0.055322 0.078597 0.092870 0.102051 0.107282 0.054004 0.076614 0.090430 0.099299 0.104352 0.052606 0.074503 0.087828 0.096365 0.101226 0.051115 0.072244 0.085039 0.093218 0.097876 0.049514 0.069809 0.082032 0.089827 0.094266 0.047782 0.067167 0.078766 0.086145 0.090351 0.045892 0.064272 0.075189 0.082118 0.086072 0.043802 0.061063 0.071230 0.077669 0.081352 0.041456 0.057456 0.066791 0.072696 0.076084 0.038767 0.053324 0.061733 0.067049 0.070117 0.035592 0.048472 0.055839 0.060503 0.063217 0.031674 0.042566 0.048748 0.052678 0.054993 0.026480 0.034954 0.039756 0.042833 0.044677 0.018590 0.023963 0.027042 0.029041 0.030266 