Variables="X","Y","Z","GAMMA"
ZONE T="WING" i=6,j=51,k=1, ZONETYPE=Ordered
DATAPACKING=BLOCK
VARLOCATION=([4]=CELLCENTERED)
-0.000000 0.200000 0.400000 0.600000 0.800000 1.000000 -0.080000 0.120000 0.320000 0.520000 0.720000 0.920000 -0.160000 0.040000 0.240000 0.440000 0.640000 0.840000 -0.240000 -0.040000 0.160000 0.360000 0.560000 0.760000 -0.320000 -0.120000 0.080000 0.280000 0.480000 0.680000 -0.400000 -0.200000 -0.000000 0.200000 0.400000 0.600000 -0.480000 -0.280000 -0.080000 0.120000 0.320000 0.520000 -0.560000 -0.360000 -0.160000 0.040000 0.240000 0.440000 -0.640000 -0.440000 -0.240000 -0.040000 0.160000 0.360000 -0.720000 -0.520000 -0.320000 -0.120000 0.080000 0.280000 -0.800000 -0.600000 -0.400000 -0.200000 -0.000000 0.200000 -0.880000 -0.680000 -0.480000 -0.280000 -0.080000 0.120000 -0.960000 -0.760000 -0.560000 -0.360000 -0.160000 0.040000 -1.040000 -0.840000 -0.640000 -0.440000 -0.240000 -0.040000 -1.120000 -0.920000 -0.720000 -0.520000 -0.320000 -0.120000 -1.200000 -1.000000 -0.800000 -0.600000 -0.400000 -0.200000 -1.280000 -1.080000 -0.880000 -0.680000 -0.480000 -0.280000 -1.360000 -1.160000 -0.960000 -0.760000 -0.560000 -0.360000 -1.440000 -1.240000 -1.040000 -0.840000 -0.640000 -0.440000 -1.520000 -1.320000 -1.120000 -0.920000 -0.720000 -0.520000 -1.600000 -1.400000 -1.200000 -1.000000 -0.800000 -0.600000 -1.680000 -1.480000 -1.280000 -1.080000 -0.880000 -0.680000 -1.760000 -1.560000 -1.360000 -1.160000 -0.960000 -0.760000 -1.840000 -1.640000 -1.440000 -1.240000 -1.040000 -0.840000 -1.920000 -1.720000 -1.520000 -1.320000 -1.120000 -0.920000 -2.000000 -1.800000 -1.600000 -1.400000 -1.200000 -1.000000 -2.080000 -1.880000 -1.680000 -1.480000 -1.280000 -1.080000 -2.160000 -1.960000 -1.760000 -1.560000 -1.360000 -1.160000 -2.240000 -2.040000 -1.840000 -1.640000 -1.440000 -1.240000 -2.320000 -2.120000 -1.920000 -1.720000 -1.520000 -1.320000 -2.400000 -2.200000 -2.000000 -1.800000 -1.600000 -1.400000 -2.480000 -2.280000 -2.080000 -1.880000 -1.680000 -1.480000 -2.560000 -2.360000 -2.160000 -1.960000 -1.760000 -1.560000 -2.640000 -2.440000 -2.240000 -2.040000 -1.840000 -1.640000 -2.720000 -2.520000 -2.320000 -2.120000 -1.920000 -1.720000 -2.800000 -2.600000 -2.400000 -2.200000 -2.000000 -1.800000 -2.880000 -2.680000 -2.480000 -2.280000 -2.080000 -1.880000 -2.960000 -2.760000 -2.560000 -2.360000 -2.160000 -1.960000 -3.040000 -2.840000 -2.640000 -2.440000 -2.240000 -2.040000 -3.120000 -2.920000 -2.720000 -2.520000 -2.320000 -2.120000 -3.200000 -3.000000 -2.800000 -2.600000 -2.400000 -2.200000 -3.280000 -3.080000 -2.880000 -2.680000 -2.480000 -2.280000 -3.360000 -3.160000 -2.960000 -2.760000 -2.560000 -2.360000 -3.440000 -3.240000 -3.040000 -2.840000 -2.640000 -2.440000 -3.520000 -3.320000 -3.120000 -2.920000 -2.720000 -2.520000 -3.600000 -3.400000 -3.200000 -3.000000 -2.800000 -2.600000 -3.680000 -3.480000 -3.280000 -3.080000 -2.880000 -2.680000 -3.760000 -3.560000 -3.360000 -3.160000 -2.960000 -2.760000 -3.840000 -3.640000 -3.440000 -3.240000 -3.040000 -2.840000 -3.920000 -3.720000 -3.520000 -3.320000 -3.120000 -2.920000 -4.000000 -3.800000 -3.600000 -3.400000 -3.200000 -3.000000
0.000000 0.000000 0.000000 0.000000 0.000000 0.000000 0.080000 0.080000 0.080000 0.080000 0.080000 0.080000 0.160000 0.160000 0.160000 0.160000 0.160000 0.160000 0.240000 0.240000 0.240000 0.240000 0.240000 0.240000 0.320000 0.320000 0.320000 0.320000 0.320000 0.320000 0.400000 0.400000 0.400000 0.400000 0.400000 0.400000 0.480000 0.480000 0.480000 0.480000 0.480000 0.480000 0.560000 0.560000 0.560000 0.560000 0.560000 0.560000 0.640000 0.640000 0.640000 0.640000 0.640000 0.640000 0.720000 0.720000 0.720000 0.720000 0.720000 0.720000 0.800000 0.800000 0.800000 0.800000 0.800000 0.800000 0.880000 0.880000 0.880000 0.880000 0.880000 0.880000 0.960000 0.960000 0.960000 0.960000 0.960000 0.960000 1.040000 1.040000 1.040000 1.040000 1.040000 1.040000 1.120000 1.120000 1.120000 1.120000 1.120000 1.120000 1.200000 1.200000 1.200000 1.200000 1.200000 1.200000 1.280000 1.280000 1.280000 1.280000 1.280000 1.280000 1.360000 1.360000 1.360000 1.360000 1.360000 1.360000 1.440000 1.440000 1.440000 1.440000 1.440000 1.440000 1.520000 1.520000 1.520000 1.520000 1.520000 1.520000 1.600000 1.600000 1.600000 1.600000 1.600000 1.600000 1.680000 1.680000 1.680000 1.680000 1.680000 1.680000 1.760000 1.760000 1.760000 1.760000 1.760000 1.760000 1.840000 1.840000 1.840000 1.840000 1.840000 1.840000 1.920000 1.920000 1.920000 1.920000 1.920000 1.920000 2.000000 2.000000 2.000000 2.000000 2.000000 2.000000 2.080000 2.080000 2.080000 2.080000 2.080000 2.080000 2.160000 2.160000 2.160000 2.160000 2.160000 2.160000 2.240000 2.240000 2.240000 2.240000 2.240000 2.240000 2.320000 2.320000 2.320000 2.320000 2.320000 2.320000 2.400000 2.400000 2.400000 2.400000 2.400000 2.400000 2.480000 2.480000 2.480000 2.480000 2.480000 2.480000 2.560000 2.560000 2.560000 2.560000 2.560000 2.560000 2.640000 2.640000 2.640000 2.640000 2.640000 2.640000 2.720000 2.720000 2.720000 2.720000 2.720000 2.720000 2.800000 2.800000 2.800000 2.800000 2.800000 2.800000 2.880000 2.880000 2.880000 2.880000 2.880000 2.880000 2.960000 2.960000 2.960000 2.960000 2.960000 2.960000 3.040000 3.040000 3.040000 3.040000 3.040000 3.040000 3.120000 3.120000 3.120000 3.120000 3.120000 3.120000 3.200000 3.200000 3.200000 3.200000 3.200000 3.200000 3.280000 3.280000 3.280000 3.280000 3.280000 3.280000 3.360000 3.360000 3.360000 3.360000 3.360000 3.360000 3.440000 3.440000 3.440000 3.440000 3.440000 3.440000 3.520000 3.520000 3.520000 3.520000 3.520000 3.520000 3.600000 3.600000 3.600000 3.600000 3.600000 3.600000 3.680000 3.680000 3.680000 3.680000 3.680000 3.680000 3.760000 3.760000 3.760000 3.760000 3.760000 3.760000 3.840000 3.840000 3.840000 3.840000 3.840000 3.840000 3.920000 3.920000 3.920000 3.920000 3.920000 3.920000 4.000000 4.000000 4.000000 4.000000 4.000000 4.000000
0.000000 0.000000 0.000000 0.000000 0.000000 0.000000 0.000000 0.000000 0.000000 0.000000 0.000000 0.000000 0.000000 0.000000 0.000000 0.000000 0.000000 0.000000 0.000000 0.000000 0.000000 0.000000 0.000000 0.000000 0.000000 0.000000 0.000000 0.000000 0.000000 0.000000 0.000000 0.000000 0.000000 0.000000 0.000000 0.000000 0.000000 0.000000 0.000000 0.000000 0.000000 0.000000 0.000000 0.000000 0.000000 0.000000 0.000000 0.000000 0.000000 0.000000 0.000000 0.000000 0.000000 0.000000 0.000000 0.000000 0.000000 0.000000 0.000000 0.000000 0.000000 0.000000 0.000000 0.000000 0.000000 0.000000 0.000000 0.000000 0.000000 0.000000 0.000000 0.000000 0.000000 0.000000 0.000000 0.000000 0.000000 0.000000 0.000000 0.000000 0.000000 0.000000 0.000000 0.000000 0.000000 0.000000 0.000000 0.000000 0.000000 0.000000 0.000000 0.000000 0.000000 0.000000 0.000000 0.000000 0.000000 0.000000 0.000000 0.000000 0.000000 0.000000 0.000000 0.000000 0.000000 0.000000 0.000000 0.000000 0.000000 0.000000 0.000000 0.000000 0.000000 0.000000 0.000000 0.000000 0.000000 0.000000 0.000000 0.000000 0.000000 0.000000 0.000000 0.000000 0.000000 0.000000 0.000000 0.000000 0.000000 0.000000 0.000000 0.000000 0.000000 0.000000 0.000000 0.000000 0.000000 0.000000 0.000000 0.000000 0.000000 0.000000 0.000000 0.000000 0.000000 0.000000 0.000000 0.000000 0.000000 0.000000 0.000000 0.000000 0.000000 0.000000 0.000000 0.000000 0.000000 0.000000 0.000000 0.000000 0.000000 0.000000 0.000000 0.000000 0.000000 0.000000 0.000000 0.000000 0.000000 0.000000 0.000000 0.000000 0.000000 0.000000 0.000000 0.000000 0.000000 0.000000 0.000000 0.000000 0.000000 0.000000 0.000000 0.000000 0.000000 0.000000 0.000000 0.000000 0.000000 0.000000 0.000000 0.000000 0.000000 0.000000 0.000000 0.000000 0.000000 0.000000 0.000000 0.000000 0.000000 0.000000 0.000000 0.000000 0.000000 0.000000 0.000000 0.000000 0.000000 0.000000 0.000000 0.000000 0.000000 0.000000 0.000000 0.000000 0.000000 0.000000 0.000000 0.000000 0.000000 0.000000 0.000000 0.000000 0.000000 0.000000 0.000000 0.000000 0.000000 0.000000 0.000000 0.000000 0.000000 0.000000 0.000000 0.000000 0.000000 0.000000 0.000000 0.000000 0.000000 0.000000 0.000000 0.000000 0.000000 0.000000 0.000000 0.000000 0.000000 0.000000 0.000000 0.000000 0.000000 0.000000 0.000000 0.000000 0.000000 0.000000 0.000000 0.000000 0.000000 0.000000 0.000000 0.000000 0.000000 0.000000 0.000000 0.000000 0.000000 0.000000 0.000000 0.000000 0.000000 0.000000 0.000000 0.000000 0.000000 0.000000 0.000000 0.000000 0.000000 0.000000 0.000000 0.000000 0.000000 0.000000 0.000000 0.000000 0.000000 0.000000 0.000000 0.000000 0.000000 0.000000 0.000000 0.000000 0.000000 0.000000 0.000000 0.000000 0.000000 0.000000 0.000000 0.000000 0.000000 0.000000
0.070503 0.092444 0.103520 0.109404 0.112011 0.062043 0.087581 0.100613 0.107643 0.110926 0.056525 0.082610 0.097236 0.105381 0.109322 0.053076 0.078337 0.093786 0.102840 0.107376 0.050748 0.074945 0.090546 0.100204 0.105232 0.049062 0.072299 0.087676 0.097627 0.103014 0.047772 0.070212 0.085214 0.095217 0.100822 0.046743 0.068529 0.083128 0.093033 0.098732 0.045894 0.067141 0.081358 0.091090 0.096791 0.045175 0.065971 0.079844 0.089374 0.095020 0.044551 0.064964 0.078533 0.087860 0.093419 0.043999 0.064081 0.077384 0.086518 0.091976 0.043502 0.063293 0.076362 0.085318 0.090673 0.043047 0.062579 0.075440 0.084235 0.089491 0.042624 0.061921 0.074597 0.083246 0.088408 0.042226 0.061306 0.073814 0.082332 0.087408 0.041846 0.060724 0.073079 0.081476 0.086474 0.041478 0.060167 0.072379 0.080666 0.085592 0.041120 0.059627 0.071705 0.079891 0.084750 0.040766 0.059098 0.071048 0.079139 0.083936 0.040414 0.058574 0.070403 0.078403 0.083142 0.040061 0.058051 0.069761 0.077676 0.082359 0.039704 0.057525 0.069119 0.076950 0.081581 0.039341 0.056992 0.068471 0.076219 0.080800 0.038968 0.056448 0.067811 0.075479 0.080010 0.038585 0.055889 0.067136 0.074724 0.079206 0.038188 0.055312 0.066440 0.073947 0.078381 0.037775 0.054713 0.065720 0.073145 0.077530 0.037343 0.054087 0.064970 0.072311 0.076647 0.036890 0.053432 0.064185 0.071441 0.075726 0.036412 0.052742 0.063360 0.070527 0.074761 0.035907 0.052013 0.062490 0.069564 0.073745 0.035370 0.051240 0.061567 0.068544 0.072671 0.034798 0.050416 0.060586 0.067461 0.071529 0.034186 0.049535 0.059537 0.066303 0.070311 0.033528 0.048589 0.058411 0.065063 0.069007 0.032819 0.047569 0.057198 0.063727 0.067602 0.032052 0.046465 0.055886 0.062282 0.066084 0.031217 0.045264 0.054458 0.060711 0.064435 0.030305 0.043951 0.052897 0.058994 0.062633 0.029305 0.042508 0.051181 0.057107 0.060654 0.028199 0.040911 0.049281 0.055019 0.058464 0.026972 0.039133 0.047163 0.052689 0.056022 0.025597 0.037136 0.044779 0.050067 0.053273 0.024045 0.034869 0.042067 0.047079 0.050143 0.022269 0.032264 0.038937 0.043626 0.046523 0.020201 0.029212 0.035255 0.039550 0.042248 0.017722 0.025537 0.030799 0.034594 0.037040 0.014590 0.020882 0.025137 0.028257 0.030353 0.010133 0.014300 0.017139 0.019258 0.020768 