Variables="X","Y","Z","GAMMA"
ZONE T="WING" i=6,j=51,k=1, ZONETYPE=Ordered
DATAPACKING=BLOCK
VARLOCATION=([4]=CELLCENTERED)
0.000000 0.200000 0.400000 0.600000 0.800000 1.000000 0.080000 0.280000 0.480000 0.680000 0.880000 1.080000 0.160000 0.360000 0.560000 0.760000 0.960000 1.160000 0.240000 0.440000 0.640000 0.840000 1.040000 1.240000 0.320000 0.520000 0.720000 0.920000 1.120000 1.320000 0.400000 0.600000 0.800000 1.000000 1.200000 1.400000 0.480000 0.680000 0.880000 1.080000 1.280000 1.480000 0.560000 0.760000 0.960000 1.160000 1.360000 1.560000 0.640000 0.840000 1.040000 1.240000 1.440000 1.640000 0.720000 0.920000 1.120000 1.320000 1.520000 1.720000 0.800000 1.000000 1.200000 1.400000 1.600000 1.800000 0.880000 1.080000 1.280000 1.480000 1.680000 1.880000 0.960000 1.160000 1.360000 1.560000 1.760000 1.960000 1.040000 1.240000 1.440000 1.640000 1.840000 2.040000 1.120000 1.320000 1.520000 1.720000 1.920000 2.120000 1.200000 1.400000 1.600000 1.800000 2.000000 2.200000 1.280000 1.480000 1.680000 1.880000 2.080000 2.280000 1.360000 1.560000 1.760000 1.960000 2.160000 2.360000 1.440000 1.640000 1.840000 2.040000 2.240000 2.440000 1.520000 1.720000 1.920000 2.120000 2.320000 2.520000 1.600000 1.800000 2.000000 2.200000 2.400000 2.600000 1.680000 1.880000 2.080000 2.280000 2.480000 2.680000 1.760000 1.960000 2.160000 2.360000 2.560000 2.760000 1.840000 2.040000 2.240000 2.440000 2.640000 2.840000 1.920000 2.120000 2.320000 2.520000 2.720000 2.920000 2.000000 2.200000 2.400000 2.600000 2.800000 3.000000 2.080000 2.280000 2.480000 2.680000 2.880000 3.080000 2.160000 2.360000 2.560000 2.760000 2.960000 3.160000 2.240000 2.440000 2.640000 2.840000 3.040000 3.240000 2.320000 2.520000 2.720000 2.920000 3.120000 3.320000 2.400000 2.600000 2.800000 3.000000 3.200000 3.400000 2.480000 2.680000 2.880000 3.080000 3.280000 3.480000 2.560000 2.760000 2.960000 3.160000 3.360000 3.560000 2.640000 2.840000 3.040000 3.240000 3.440000 3.640000 2.720000 2.920000 3.120000 3.320000 3.520000 3.720000 2.800000 3.000000 3.200000 3.400000 3.600000 3.800000 2.880000 3.080000 3.280000 3.480000 3.680000 3.880000 2.960000 3.160000 3.360000 3.560000 3.760000 3.960000 3.040000 3.240000 3.440000 3.640000 3.840000 4.040000 3.120000 3.320000 3.520000 3.720000 3.920000 4.120000 3.200000 3.400000 3.600000 3.800000 4.000000 4.200000 3.280000 3.480000 3.680000 3.880000 4.080000 4.280000 3.360000 3.560000 3.760000 3.960000 4.160000 4.360000 3.440000 3.640000 3.840000 4.040000 4.240000 4.440000 3.520000 3.720000 3.920000 4.120000 4.320000 4.520000 3.600000 3.800000 4.000000 4.200000 4.400000 4.600000 3.680000 3.880000 4.080000 4.280000 4.480000 4.680000 3.760000 3.960000 4.160000 4.360000 4.560000 4.760000 3.840000 4.040000 4.240000 4.440000 4.640000 4.840000 3.920000 4.120000 4.320000 4.520000 4.720000 4.920000 4.000000 4.200000 4.400000 4.600000 4.800000 5.000000
0.000000 0.000000 0.000000 0.000000 0.000000 0.000000 0.080000 0.080000 0.080000 0.080000 0.080000 0.080000 0.160000 0.160000 0.160000 0.160000 0.160000 0.160000 0.240000 0.240000 0.240000 0.240000 0.240000 0.240000 0.320000 0.320000 0.320000 0.320000 0.320000 0.320000 0.400000 0.400000 0.400000 0.400000 0.400000 0.400000 0.480000 0.480000 0.480000 0.480000 0.480000 0.480000 0.560000 0.560000 0.560000 0.560000 0.560000 0.560000 0.640000 0.640000 0.640000 0.640000 0.640000 0.640000 0.720000 0.720000 0.720000 0.720000 0.720000 0.720000 0.800000 0.800000 0.800000 0.800000 0.800000 0.800000 0.880000 0.880000 0.880000 0.880000 0.880000 0.880000 0.960000 0.960000 0.960000 0.960000 0.960000 0.960000 1.040000 1.040000 1.040000 1.040000 1.040000 1.040000 1.120000 1.120000 1.120000 1.120000 1.120000 1.120000 1.200000 1.200000 1.200000 1.200000 1.200000 1.200000 1.280000 1.280000 1.280000 1.280000 1.280000 1.280000 1.360000 1.360000 1.360000 1.360000 1.360000 1.360000 1.440000 1.440000 1.440000 1.440000 1.440000 1.440000 1.520000 1.520000 1.520000 1.520000 1.520000 1.520000 1.600000 1.600000 1.600000 1.600000 1.600000 1.600000 1.680000 1.680000 1.680000 1.680000 1.680000 1.680000 1.760000 1.760000 1.760000 1.760000 1.760000 1.760000 1.840000 1.840000 1.840000 1.840000 1.840000 1.840000 1.920000 1.920000 1.920000 1.920000 1.920000 1.920000 2.000000 2.000000 2.000000 2.000000 2.000000 2.000000 2.080000 2.080000 2.080000 2.080000 2.080000 2.080000 2.160000 2.160000 2.160000 2.160000 2.160000 2.160000 2.240000 2.240000 2.240000 2.240000 2.240000 2.240000 2.320000 2.320000 2.320000 2.320000 2.320000 2.320000 2.400000 2.400000 2.400000 2.400000 2.400000 2.400000 2.480000 2.480000 2.480000 2.480000 2.480000 2.480000 2.560000 2.560000 2.560000 2.560000 2.560000 2.560000 2.640000 2.640000 2.640000 2.640000 2.640000 2.640000 2.720000 2.720000 2.720000 2.720000 2.720000 2.720000 2.800000 2.800000 2.800000 2.800000 2.800000 2.800000 2.880000 2.880000 2.880000 2.880000 2.880000 2.880000 2.960000 2.960000 2.960000 2.960000 2.960000 2.960000 3.040000 3.040000 3.040000 3.040000 3.040000 3.040000 3.120000 3.120000 3.120000 3.120000 3.120000 3.120000 3.200000 3.200000 3.200000 3.200000 3.200000 3.200000 3.280000 3.280000 3.280000 3.280000 3.280000 3.280000 3.360000 3.360000 3.360000 3.360000 3.360000 3.360000 3.440000 3.440000 3.440000 3.440000 3.440000 3.440000 3.520000 3.520000 3.520000 3.520000 3.520000 3.520000 3.600000 3.600000 3.600000 3.600000 3.600000 3.600000 3.680000 3.680000 3.680000 3.680000 3.680000 3.680000 3.760000 3.760000 3.760000 3.760000 3.760000 3.760000 3.840000 3.840000 3.840000 3.840000 3.840000 3.840000 3.920000 3.920000 3.920000 3.920000 3.920000 3.920000 4.000000 4.000000 4.000000 4.000000 4.000000 4.000000
0.000000 0.000000 0.000000 0.000000 0.000000 0.000000 0.000000 0.000000 0.000000 0.000000 0.000000 0.000000 0.000000 0.000000 0.000000 0.000000 0.000000 0.000000 0.000000 0.000000 0.000000 0.000000 0.000000 0.000000 0.000000 0.000000 0.000000 0.000000 0.000000 0.000000 0.000000 0.000000 0.000000 0.000000 0.000000 0.000000 0.000000 0.000000 0.000000 0.000000 0.000000 0.000000 0.000000 0.000000 0.000000 0.000000 0.000000 0.000000 0.000000 0.000000 0.000000 0.000000 0.000000 0.000000 0.000000 0.000000 0.000000 0.000000 0.000000 0.000000 0.000000 0.000000 0.000000 0.000000 0.000000 0.000000 0.000000 0.000000 0.000000 0.000000 0.000000 0.000000 0.000000 0.000000 0.000000 0.000000 0.000000 0.000000 0.000000 0.000000 0.000000 0.000000 0.000000 0.000000 0.000000 0.000000 0.000000 0.000000 0.000000 0.000000 0.000000 0.000000 0.000000 0.000000 0.000000 0.000000 0.000000 0.000000 0.000000 0.000000 0.000000 0.000000 0.000000 0.000000 0.000000 0.000000 0.000000 0.000000 0.000000 0.000000 0.000000 0.000000 0.000000 0.000000 0.000000 0.000000 0.000000 0.000000 0.000000 0.000000 0.000000 0.000000 0.000000 0.000000 0.000000 0.000000 0.000000 0.000000 0.000000 0.000000 0.000000 0.000000 0.000000 0.000000 0.000000 0.000000 0.000000 0.000000 0.000000 0.000000 0.000000 0.000000 0.000000 0.000000 0.000000 0.000000 0.000000 0.000000 0.000000 0.000000 0.000000 0.000000 0.000000 0.000000 0.000000 0.000000 0.000000 0.000000 0.000000 0.000000 0.000000 0.000000 0.000000 0.000000 0.000000 0.000000 0.000000 0.000000 0.000000 0.000000 0.000000 0.000000 0.000000 0.000000 0.000000 0.000000 0.000000 0.000000 0.000000 0.000000 0.000000 0.000000 0.000000 0.000000 0.000000 0.000000 0.000000 0.000000 0.000000 0.000000 0.000000 0.000000 0.000000 0.000000 0.000000 0.000000 0.000000 0.000000 0.000000 0.000000 0.000000 0.000000 0.000000 0.000000 0.000000 0.000000 0.000000 0.000000 0.000000 0.000000 0.000000 0.000000 0.000000 0.000000 0.000000 0.000000 0.000000 0.000000 0.000000 0.000000 0.000000 0.000000 0.000000 0.000000 0.000000 0.000000 0.000000 0.000000 0.000000 0.000000 0.000000 0.000000 0.000000 0.000000 0.000000 0.000000 0.000000 0.000000 0.000000 0.000000 0.000000 0.000000 0.000000 0.000000 0.000000 0.000000 0.000000 0.000000 0.000000 0.000000 0.000000 0.000000 0.000000 0.000000 0.000000 0.000000 0.000000 0.000000 0.000000 0.000000 0.000000 0.000000 0.000000 0.000000 0.000000 0.000000 0.000000 0.000000 0.000000 0.000000 0.000000 0.000000 0.000000 0.000000 0.000000 0.000000 0.000000 0.000000 0.000000 0.000000 0.000000 0.000000 0.000000 0.000000 0.000000 0.000000 0.000000 0.000000 0.000000 0.000000 0.000000 0.000000 0.000000 0.000000 0.000000 0.000000 0.000000 0.000000 0.000000 0.000000 0.000000 0.000000 0.000000 0.000000 0.000000 0.000000
0.024890 0.040748 0.053152 0.062803 0.069397 0.028155 0.043947 0.055898 0.064924 0.070654 0.030625 0.046596 0.058252 0.066773 0.071972 0.032484 0.048688 0.060155 0.068320 0.073221 0.033927 0.050355 0.061705 0.069642 0.074374 0.035074 0.051704 0.062992 0.070793 0.075427 0.036004 0.052817 0.064083 0.071807 0.076386 0.036770 0.053750 0.065024 0.072711 0.077259 0.037412 0.054547 0.065847 0.073521 0.078054 0.037959 0.055236 0.066575 0.074251 0.078779 0.038430 0.055841 0.067224 0.074912 0.079440 0.038842 0.056377 0.067808 0.075513 0.080045 0.039206 0.056856 0.068335 0.076060 0.080599 0.039530 0.057286 0.068813 0.076558 0.081105 0.039820 0.057675 0.069247 0.077014 0.081569 0.040081 0.058026 0.069642 0.077430 0.081993 0.040317 0.058346 0.070002 0.077810 0.082380 0.040531 0.058637 0.070331 0.078156 0.082734 0.040726 0.058901 0.070629 0.078471 0.083055 0.040903 0.059141 0.070901 0.078757 0.083346 0.041063 0.059359 0.071146 0.079015 0.083608 0.041208 0.059556 0.071367 0.079246 0.083841 0.041339 0.059732 0.071564 0.079451 0.084046 0.041457 0.059890 0.071739 0.079630 0.084224 0.041561 0.060029 0.071890 0.079784 0.084375 0.041653 0.060149 0.072019 0.079911 0.084497 0.041733 0.060251 0.072125 0.080012 0.084589 0.041800 0.060334 0.072208 0.080085 0.084651 0.041855 0.060398 0.072265 0.080128 0.084679 0.041897 0.060441 0.072296 0.080139 0.084671 0.041925 0.060463 0.072298 0.080115 0.084622 0.041939 0.060461 0.072268 0.080052 0.084528 0.041937 0.060434 0.072203 0.079943 0.084381 0.041917 0.060377 0.072097 0.079782 0.084173 0.041878 0.060287 0.071943 0.079560 0.083892 0.041817 0.060158 0.071733 0.079264 0.083523 0.041730 0.059983 0.071456 0.078879 0.083046 0.041613 0.059752 0.071097 0.078384 0.082438 0.041459 0.059454 0.070636 0.077752 0.081663 0.041261 0.059072 0.070045 0.076945 0.080680 0.041007 0.058582 0.069287 0.075913 0.079430 0.040681 0.057951 0.068312 0.074590 0.077841 0.040263 0.057134 0.067044 0.072884 0.075816 0.039720 0.056060 0.065379 0.070673 0.073236 0.039003 0.054618 0.063159 0.067790 0.069945 0.038027 0.052630 0.060153 0.064015 0.065742 0.036641 0.049786 0.056018 0.059044 0.060354 0.034530 0.045532 0.050234 0.052426 0.053356 0.030919 0.038832 0.041926 0.043355 0.043956 0.023409 0.027431 0.029046 0.029807 0.030127 