Variables="X","Y","Z","GAMMA"
ZONE T="WING" i=6,j=51,k=1, ZONETYPE=Ordered
DATAPACKING=BLOCK
VARLOCATION=([4]=CELLCENTERED)
0.000000 0.200000 0.400000 0.600000 0.800000 1.000000 0.000245 0.200147 0.400049 0.599951 0.799853 0.999755 0.000982 0.200589 0.400196 0.599804 0.799411 0.999018 0.002208 0.201325 0.400442 0.599558 0.798675 0.997792 0.003923 0.202354 0.400785 0.599215 0.797646 0.996077 0.006125 0.203675 0.401225 0.598775 0.796325 0.993875 0.008812 0.205287 0.401762 0.598238 0.794713 0.991188 0.011981 0.207188 0.402396 0.597604 0.792812 0.988019 0.015629 0.209377 0.403126 0.596874 0.790623 0.984371 0.019752 0.211851 0.403950 0.596050 0.788149 0.980248 0.024346 0.214608 0.404869 0.595131 0.785392 0.975654 0.029407 0.217644 0.405881 0.594119 0.782356 0.970593 0.034930 0.220958 0.406986 0.593014 0.779042 0.965070 0.040908 0.224545 0.408182 0.591818 0.775455 0.959092 0.047336 0.228402 0.409467 0.590533 0.771598 0.952664 0.054208 0.232525 0.410842 0.589158 0.767475 0.945792 0.061516 0.236909 0.412303 0.587697 0.763091 0.938484 0.069253 0.241552 0.413851 0.586149 0.758448 0.930747 0.077411 0.246447 0.415482 0.584518 0.753553 0.922589 0.085982 0.251589 0.417196 0.582804 0.748411 0.914018 0.094958 0.256975 0.418992 0.581008 0.743025 0.905042 0.104329 0.262597 0.420866 0.579134 0.737403 0.895671 0.114085 0.268451 0.422817 0.577183 0.731549 0.885915 0.124216 0.274530 0.424843 0.575157 0.725470 0.875784 0.134713 0.280828 0.426943 0.573057 0.719172 0.865287 0.145564 0.287338 0.429113 0.570887 0.712662 0.854436 0.156757 0.294054 0.431351 0.568649 0.705946 0.843243 0.168282 0.300969 0.433656 0.566344 0.699031 0.831718 0.180126 0.308076 0.436025 0.563975 0.691924 0.819874 0.192276 0.315365 0.438455 0.561545 0.684635 0.807724 0.204719 0.322831 0.440944 0.559056 0.677169 0.795281 0.217441 0.330465 0.443488 0.556512 0.669535 0.782559 0.230429 0.338257 0.446086 0.553914 0.661743 0.769571 0.243666 0.346200 0.448733 0.551267 0.653800 0.756334 0.257139 0.354283 0.451428 0.548572 0.645717 0.742861 0.270829 0.362498 0.454166 0.545834 0.637502 0.729171 0.284720 0.370832 0.456944 0.543056 0.629168 0.715280 0.298793 0.379276 0.459759 0.540241 0.620724 0.701207 0.313025 0.387815 0.462605 0.537395 0.612185 0.686975 0.327395 0.396437 0.465479 0.534521 0.603563 0.672605 0.341875 0.405125 0.468375 0.531625 0.594875 0.658125 0.356432 0.413859 0.471286 0.528714 0.586141 0.643568 0.371026 0.422615 0.474205 0.525795 0.577385 0.628974 0.385601 0.431361 0.477120 0.522880 0.568639 0.614399 0.400080 0.440048 0.480016 0.519984 0.559952 0.599920 0.414342 0.448605 0.482868 0.517132 0.551395 0.585658 0.428184 0.456911 0.485637 0.514363 0.543089 0.571816 0.441238 0.464743 0.488248 0.511752 0.535257 0.558762 0.452769 0.471662 0.490554 0.509446 0.528338 0.547231 0.461329 0.476798 0.492266 0.507734 0.523202 0.538671 0.464645 0.478787 0.492929 0.507071 0.521213 0.535355
-0.000000 -0.000000 -0.000000 -0.000000 -0.000000 -0.000000 0.188465 0.188465 0.188465 0.188465 0.188465 0.188465 0.376743 0.376743 0.376743 0.376743 0.376743 0.376743 0.564650 0.564650 0.564650 0.564650 0.564650 0.564650 0.751999 0.751999 0.751999 0.751999 0.751999 0.751999 0.938607 0.938607 0.938607 0.938607 0.938607 0.938607 1.124288 1.124288 1.124288 1.124288 1.124288 1.124288 1.308859 1.308859 1.308859 1.308859 1.308859 1.308859 1.492139 1.492139 1.492139 1.492139 1.492139 1.492139 1.673947 1.673947 1.673947 1.673947 1.673947 1.673947 1.854102 1.854102 1.854102 1.854102 1.854102 1.854102 2.032428 2.032428 2.032428 2.032428 2.032428 2.032428 2.208747 2.208747 2.208747 2.208747 2.208747 2.208747 2.382887 2.382887 2.382887 2.382887 2.382887 2.382887 2.554676 2.554676 2.554676 2.554676 2.554676 2.554676 2.723943 2.723943 2.723943 2.723943 2.723943 2.723943 2.890522 2.890522 2.890522 2.890522 2.890522 2.890522 3.054248 3.054248 3.054248 3.054248 3.054248 3.054248 3.214961 3.214961 3.214961 3.214961 3.214961 3.214961 3.372500 3.372500 3.372500 3.372500 3.372500 3.372500 3.526712 3.526712 3.526712 3.526712 3.526712 3.526712 3.677442 3.677442 3.677442 3.677442 3.677442 3.677442 3.824544 3.824544 3.824544 3.824544 3.824544 3.824544 3.967871 3.967871 3.967871 3.967871 3.967871 3.967871 4.107283 4.107283 4.107283 4.107283 4.107283 4.107283 4.242641 4.242641 4.242641 4.242641 4.242641 4.242641 4.373812 4.373812 4.373812 4.373812 4.373812 4.373812 4.500666 4.500666 4.500666 4.500666 4.500666 4.500666 4.623079 4.623079 4.623079 4.623079 4.623079 4.623079 4.740930 4.740930 4.740930 4.740930 4.740930 4.740930 4.854102 4.854102 4.854102 4.854102 4.854102 4.854102 4.962483 4.962483 4.962483 4.962483 4.962483 4.962483 5.065968 5.065968 5.065968 5.065968 5.065968 5.065968 5.164452 5.164452 5.164452 5.164452 5.164452 5.164452 5.257840 5.257840 5.257840 5.257840 5.257840 5.257840 5.346039 5.346039 5.346039 5.346039 5.346039 5.346039 5.428962 5.428962 5.428962 5.428962 5.428962 5.428962 5.506528 5.506528 5.506528 5.506528 5.506528 5.506528 5.578659 5.578659 5.578659 5.578659 5.578659 5.578659 5.645285 5.645285 5.645285 5.645285 5.645285 5.645285 5.706339 5.706339 5.706339 5.706339 5.706339 5.706339 5.761762 5.761762 5.761762 5.761762 5.761762 5.761762 5.811499 5.811499 5.811499 5.811499 5.811499 5.811499 5.855501 5.855501 5.855501 5.855501 5.855501 5.855501 5.893724 5.893724 5.893724 5.893724 5.893724 5.893724 5.926130 5.926130 5.926130 5.926130 5.926130 5.926130 5.952688 5.952688 5.952688 5.952688 5.952688 5.952688 5.973372 5.973372 5.973372 5.973372 5.973372 5.973372 5.988160 5.988160 5.988160 5.988160 5.988160 5.988160 5.997039 5.997039 5.997039 5.997039 5.997039 5.997039 6.000000 6.000000 6.000000 6.000000 6.000000 6.000000
0.000000 0.000000 0.000000 0.000000 0.000000 0.000000 0.000000 0.000000 0.000000 0.000000 0.000000 0.000000 0.000000 0.000000 0.000000 0.000000 0.000000 0.000000 0.000000 0.000000 0.000000 0.000000 0.000000 0.000000 0.000000 0.000000 0.000000 0.000000 0.000000 0.000000 0.000000 0.000000 0.000000 0.000000 0.000000 0.000000 0.000000 0.000000 0.000000 0.000000 0.000000 0.000000 0.000000 0.000000 0.000000 0.000000 0.000000 0.000000 0.000000 0.000000 0.000000 0.000000 0.000000 0.000000 0.000000 0.000000 0.000000 0.000000 0.000000 0.000000 0.000000 0.000000 0.000000 0.000000 0.000000 0.000000 0.000000 0.000000 0.000000 0.000000 0.000000 0.000000 0.000000 0.000000 0.000000 0.000000 0.000000 0.000000 0.000000 0.000000 0.000000 0.000000 0.000000 0.000000 0.000000 0.000000 0.000000 0.000000 0.000000 0.000000 0.000000 0.000000 0.000000 0.000000 0.000000 0.000000 0.000000 0.000000 0.000000 0.000000 0.000000 0.000000 0.000000 0.000000 0.000000 0.000000 0.000000 0.000000 0.000000 0.000000 0.000000 0.000000 0.000000 0.000000 0.000000 0.000000 0.000000 0.000000 0.000000 0.000000 0.000000 0.000000 0.000000 0.000000 0.000000 0.000000 0.000000 0.000000 0.000000 0.000000 0.000000 0.000000 0.000000 0.000000 0.000000 0.000000 0.000000 0.000000 0.000000 0.000000 0.000000 0.000000 0.000000 0.000000 0.000000 0.000000 0.000000 0.000000 0.000000 0.000000 0.000000 0.000000 0.000000 0.000000 0.000000 0.000000 0.000000 0.000000 0.000000 0.000000 0.000000 0.000000 0.000000 0.000000 0.000000 0.000000 0.000000 0.000000 0.000000 0.000000 0.000000 0.000000 0.000000 0.000000 0.000000 0.000000 0.000000 0.000000 0.000000 0.000000 0.000000 0.000000 0.000000 0.000000 0.000000 0.000000 0.000000 0.000000 0.000000 0.000000 0.000000 0.000000 0.000000 0.000000 0.000000 0.000000 0.000000 0.000000 0.000000 0.000000 0.000000 0.000000 0.000000 0.000000 0.000000 0.000000 0.000000 0.000000 0.000000 0.000000 0.000000 0.000000 0.000000 0.000000 0.000000 0.000000 0.000000 0.000000 0.000000 0.000000 0.000000 0.000000 0.000000 0.000000 0.000000 0.000000 0.000000 0.000000 0.000000 0.000000 0.000000 0.000000 0.000000 0.000000 0.000000 0.000000 0.000000 0.000000 0.000000 0.000000 0.000000 0.000000 0.000000 0.000000 0.000000 0.000000 0.000000 0.000000 0.000000 0.000000 0.000000 0.000000 0.000000 0.000000 0.000000 0.000000 0.000000 0.000000 0.000000 0.000000 0.000000 0.000000 0.000000 0.000000 0.000000 0.000000 0.000000 0.000000 0.000000 0.000000 0.000000 0.000000 0.000000 0.000000 0.000000 0.000000 0.000000 0.000000 0.000000 0.000000 0.000000 0.000000 0.000000 0.000000 0.000000 0.000000 0.000000 0.000000 0.000000 0.000000 0.000000 0.000000 0.000000 0.000000 0.000000 0.000000 0.000000 0.000000 0.000000 0.000000 0.000000 0.000000 0.000000 0.000000 0.000000 0.000000
0.058976 0.085068 0.101769 0.112858 0.119300 0.058919 0.084984 0.101670 0.112747 0.119183 0.058803 0.084818 0.101470 0.112525 0.118948 0.058631 0.084569 0.101171 0.112193 0.118597 0.058401 0.084236 0.100773 0.111751 0.118129 0.058114 0.083822 0.100276 0.111199 0.117545 0.057770 0.083325 0.099681 0.110538 0.116846 0.057370 0.082747 0.098988 0.109769 0.116031 0.056914 0.082088 0.098198 0.108892 0.115103 0.056402 0.081348 0.097312 0.107908 0.114062 0.055835 0.080530 0.096331 0.106818 0.112908 0.055214 0.079632 0.095256 0.105623 0.111644 0.054539 0.078657 0.094087 0.104325 0.110271 0.053811 0.077605 0.092826 0.102925 0.108789 0.053031 0.076477 0.091475 0.101424 0.107200 0.052199 0.075275 0.090034 0.099824 0.105507 0.051316 0.073999 0.088505 0.098126 0.103710 0.050384 0.072652 0.086890 0.096332 0.101811 0.049402 0.071234 0.085191 0.094444 0.099813 0.048373 0.069746 0.083408 0.092464 0.097717 0.047297 0.068191 0.081544 0.090394 0.095526 0.046175 0.066571 0.079601 0.088236 0.093242 0.045009 0.064885 0.077582 0.085992 0.090867 0.043800 0.063138 0.075486 0.083664 0.088403 0.042549 0.061329 0.073319 0.081256 0.085854 0.041257 0.059462 0.071080 0.078769 0.083222 0.039926 0.057538 0.068773 0.076206 0.080509 0.038557 0.055559 0.066401 0.073570 0.077718 0.037151 0.053527 0.063965 0.070864 0.074853 0.035711 0.051445 0.061469 0.068090 0.071917 0.034238 0.049315 0.058915 0.065252 0.068912 0.032733 0.047140 0.056306 0.062352 0.065842 0.031198 0.044921 0.053645 0.059395 0.062710 0.029636 0.042662 0.050935 0.056382 0.059520 0.028047 0.040365 0.048180 0.053319 0.056276 0.026435 0.038032 0.045381 0.050208 0.052980 0.024800 0.035668 0.042544 0.047053 0.049638 0.023146 0.033275 0.039672 0.043858 0.046254 0.021475 0.030857 0.036769 0.040627 0.042830 0.019790 0.028417 0.033838 0.037365 0.039373 0.018093 0.025960 0.030885 0.034077 0.035887 0.016388 0.023490 0.027915 0.030766 0.032376 0.014680 0.021013 0.024932 0.027439 0.028847 0.012974 0.018536 0.021943 0.024101 0.025304 0.011278 0.016066 0.018953 0.020756 0.021753 0.009605 0.013613 0.015965 0.017408 0.018201 0.007970 0.011180 0.012978 0.014059 0.014655 0.006391 0.008744 0.009973 0.010711 0.011128 0.004821 0.006219 0.006937 0.007385 0.007653 0.002966 0.003659 0.004036 0.004277 0.004428 