Variables="X","Y","Z","GAMMA"
ZONE T="WING" i=6,j=51,k=1, ZONETYPE=Ordered
DATAPACKING=BLOCK
VARLOCATION=([4]=CELLCENTERED)
0.000000 0.200000 0.400000 0.600000 0.800000 1.000000 0.000245 0.200147 0.400049 0.599951 0.799853 0.999755 0.000982 0.200589 0.400196 0.599804 0.799411 0.999018 0.002208 0.201325 0.400442 0.599558 0.798675 0.997792 0.003923 0.202354 0.400785 0.599215 0.797646 0.996077 0.006125 0.203675 0.401225 0.598775 0.796325 0.993875 0.008812 0.205287 0.401762 0.598238 0.794713 0.991188 0.011981 0.207188 0.402396 0.597604 0.792812 0.988019 0.015629 0.209377 0.403126 0.596874 0.790623 0.984371 0.019752 0.211851 0.403950 0.596050 0.788149 0.980248 0.024346 0.214608 0.404869 0.595131 0.785392 0.975654 0.029407 0.217644 0.405881 0.594119 0.782356 0.970593 0.034930 0.220958 0.406986 0.593014 0.779042 0.965070 0.040908 0.224545 0.408182 0.591818 0.775455 0.959092 0.047336 0.228402 0.409467 0.590533 0.771598 0.952664 0.054208 0.232525 0.410842 0.589158 0.767475 0.945792 0.061516 0.236909 0.412303 0.587697 0.763091 0.938484 0.069253 0.241552 0.413851 0.586149 0.758448 0.930747 0.077411 0.246447 0.415482 0.584518 0.753553 0.922589 0.085982 0.251589 0.417196 0.582804 0.748411 0.914018 0.094958 0.256975 0.418992 0.581008 0.743025 0.905042 0.104329 0.262597 0.420866 0.579134 0.737403 0.895671 0.114085 0.268451 0.422817 0.577183 0.731549 0.885915 0.124216 0.274530 0.424843 0.575157 0.725470 0.875784 0.134713 0.280828 0.426943 0.573057 0.719172 0.865287 0.145564 0.287338 0.429113 0.570887 0.712662 0.854436 0.156757 0.294054 0.431351 0.568649 0.705946 0.843243 0.168282 0.300969 0.433656 0.566344 0.699031 0.831718 0.180126 0.308076 0.436025 0.563975 0.691924 0.819874 0.192276 0.315365 0.438455 0.561545 0.684635 0.807724 0.204719 0.322831 0.440944 0.559056 0.677169 0.795281 0.217441 0.330465 0.443488 0.556512 0.669535 0.782559 0.230429 0.338257 0.446086 0.553914 0.661743 0.769571 0.243666 0.346200 0.448733 0.551267 0.653800 0.756334 0.257139 0.354283 0.451428 0.548572 0.645717 0.742861 0.270829 0.362498 0.454166 0.545834 0.637502 0.729171 0.284720 0.370832 0.456944 0.543056 0.629168 0.715280 0.298793 0.379276 0.459759 0.540241 0.620724 0.701207 0.313025 0.387815 0.462605 0.537395 0.612185 0.686975 0.327395 0.396437 0.465479 0.534521 0.603563 0.672605 0.341875 0.405125 0.468375 0.531625 0.594875 0.658125 0.356432 0.413859 0.471286 0.528714 0.586141 0.643568 0.371026 0.422615 0.474205 0.525795 0.577385 0.628974 0.385601 0.431361 0.477120 0.522880 0.568639 0.614399 0.400080 0.440048 0.480016 0.519984 0.559952 0.599920 0.414342 0.448605 0.482868 0.517132 0.551395 0.585658 0.428184 0.456911 0.485637 0.514363 0.543089 0.571816 0.441238 0.464743 0.488248 0.511752 0.535257 0.558762 0.452769 0.471662 0.490554 0.509446 0.528338 0.547231 0.461329 0.476798 0.492266 0.507734 0.523202 0.538671 0.464645 0.478787 0.492929 0.507071 0.521213 0.535355
-0.000000 -0.000000 -0.000000 -0.000000 -0.000000 -0.000000 0.219875 0.219875 0.219875 0.219875 0.219875 0.219875 0.439534 0.439534 0.439534 0.439534 0.439534 0.439534 0.658758 0.658758 0.658758 0.658758 0.658758 0.658758 0.877333 0.877333 0.877333 0.877333 0.877333 0.877333 1.095041 1.095041 1.095041 1.095041 1.095041 1.095041 1.311669 1.311669 1.311669 1.311669 1.311669 1.311669 1.527003 1.527003 1.527003 1.527003 1.527003 1.527003 1.740829 1.740829 1.740829 1.740829 1.740829 1.740829 1.952938 1.952938 1.952938 1.952938 1.952938 1.952938 2.163119 2.163119 2.163119 2.163119 2.163119 2.163119 2.371165 2.371165 2.371165 2.371165 2.371165 2.371165 2.576872 2.576872 2.576872 2.576872 2.576872 2.576872 2.780035 2.780035 2.780035 2.780035 2.780035 2.780035 2.980455 2.980455 2.980455 2.980455 2.980455 2.980455 3.177933 3.177933 3.177933 3.177933 3.177933 3.177933 3.372276 3.372276 3.372276 3.372276 3.372276 3.372276 3.563290 3.563290 3.563290 3.563290 3.563290 3.563290 3.750788 3.750788 3.750788 3.750788 3.750788 3.750788 3.934584 3.934584 3.934584 3.934584 3.934584 3.934584 4.114497 4.114497 4.114497 4.114497 4.114497 4.114497 4.290349 4.290349 4.290349 4.290349 4.290349 4.290349 4.461968 4.461968 4.461968 4.461968 4.461968 4.461968 4.629183 4.629183 4.629183 4.629183 4.629183 4.629183 4.791830 4.791830 4.791830 4.791830 4.791830 4.791830 4.949747 4.949747 4.949747 4.949747 4.949747 4.949747 5.102780 5.102780 5.102780 5.102780 5.102780 5.102780 5.250777 5.250777 5.250777 5.250777 5.250777 5.250777 5.393593 5.393593 5.393593 5.393593 5.393593 5.393593 5.531085 5.531085 5.531085 5.531085 5.531085 5.531085 5.663119 5.663119 5.663119 5.663119 5.663119 5.663119 5.789564 5.789564 5.789564 5.789564 5.789564 5.789564 5.910295 5.910295 5.910295 5.910295 5.910295 5.910295 6.025194 6.025194 6.025194 6.025194 6.025194 6.025194 6.134147 6.134147 6.134147 6.134147 6.134147 6.134147 6.237046 6.237046 6.237046 6.237046 6.237046 6.237046 6.333789 6.333789 6.333789 6.333789 6.333789 6.333789 6.424282 6.424282 6.424282 6.424282 6.424282 6.424282 6.508435 6.508435 6.508435 6.508435 6.508435 6.508435 6.586165 6.586165 6.586165 6.586165 6.586165 6.586165 6.657396 6.657396 6.657396 6.657396 6.657396 6.657396 6.722056 6.722056 6.722056 6.722056 6.722056 6.722056 6.780082 6.780082 6.780082 6.780082 6.780082 6.780082 6.831417 6.831417 6.831417 6.831417 6.831417 6.831417 6.876011 6.876011 6.876011 6.876011 6.876011 6.876011 6.913818 6.913818 6.913818 6.913818 6.913818 6.913818 6.944803 6.944803 6.944803 6.944803 6.944803 6.944803 6.968934 6.968934 6.968934 6.968934 6.968934 6.968934 6.986187 6.986187 6.986187 6.986187 6.986187 6.986187 6.996546 6.996546 6.996546 6.996546 6.996546 6.996546 7.000000 7.000000 7.000000 7.000000 7.000000 7.000000
0.000000 0.000000 0.000000 0.000000 0.000000 0.000000 0.000000 0.000000 0.000000 0.000000 0.000000 0.000000 0.000000 0.000000 0.000000 0.000000 0.000000 0.000000 0.000000 0.000000 0.000000 0.000000 0.000000 0.000000 0.000000 0.000000 0.000000 0.000000 0.000000 0.000000 0.000000 0.000000 0.000000 0.000000 0.000000 0.000000 0.000000 0.000000 0.000000 0.000000 0.000000 0.000000 0.000000 0.000000 0.000000 0.000000 0.000000 0.000000 0.000000 0.000000 0.000000 0.000000 0.000000 0.000000 0.000000 0.000000 0.000000 0.000000 0.000000 0.000000 0.000000 0.000000 0.000000 0.000000 0.000000 0.000000 0.000000 0.000000 0.000000 0.000000 0.000000 0.000000 0.000000 0.000000 0.000000 0.000000 0.000000 0.000000 0.000000 0.000000 0.000000 0.000000 0.000000 0.000000 0.000000 0.000000 0.000000 0.000000 0.000000 0.000000 0.000000 0.000000 0.000000 0.000000 0.000000 0.000000 0.000000 0.000000 0.000000 0.000000 0.000000 0.000000 0.000000 0.000000 0.000000 0.000000 0.000000 0.000000 0.000000 0.000000 0.000000 0.000000 0.000000 0.000000 0.000000 0.000000 0.000000 0.000000 0.000000 0.000000 0.000000 0.000000 0.000000 0.000000 0.000000 0.000000 0.000000 0.000000 0.000000 0.000000 0.000000 0.000000 0.000000 0.000000 0.000000 0.000000 0.000000 0.000000 0.000000 0.000000 0.000000 0.000000 0.000000 0.000000 0.000000 0.000000 0.000000 0.000000 0.000000 0.000000 0.000000 0.000000 0.000000 0.000000 0.000000 0.000000 0.000000 0.000000 0.000000 0.000000 0.000000 0.000000 0.000000 0.000000 0.000000 0.000000 0.000000 0.000000 0.000000 0.000000 0.000000 0.000000 0.000000 0.000000 0.000000 0.000000 0.000000 0.000000 0.000000 0.000000 0.000000 0.000000 0.000000 0.000000 0.000000 0.000000 0.000000 0.000000 0.000000 0.000000 0.000000 0.000000 0.000000 0.000000 0.000000 0.000000 0.000000 0.000000 0.000000 0.000000 0.000000 0.000000 0.000000 0.000000 0.000000 0.000000 0.000000 0.000000 0.000000 0.000000 0.000000 0.000000 0.000000 0.000000 0.000000 0.000000 0.000000 0.000000 0.000000 0.000000 0.000000 0.000000 0.000000 0.000000 0.000000 0.000000 0.000000 0.000000 0.000000 0.000000 0.000000 0.000000 0.000000 0.000000 0.000000 0.000000 0.000000 0.000000 0.000000 0.000000 0.000000 0.000000 0.000000 0.000000 0.000000 0.000000 0.000000 0.000000 0.000000 0.000000 0.000000 0.000000 0.000000 0.000000 0.000000 0.000000 0.000000 0.000000 0.000000 0.000000 0.000000 0.000000 0.000000 0.000000 0.000000 0.000000 0.000000 0.000000 0.000000 0.000000 0.000000 0.000000 0.000000 0.000000 0.000000 0.000000 0.000000 0.000000 0.000000 0.000000 0.000000 0.000000 0.000000 0.000000 0.000000 0.000000 0.000000 0.000000 0.000000 0.000000 0.000000 0.000000 0.000000 0.000000 0.000000 0.000000 0.000000 0.000000 0.000000 0.000000 0.000000 0.000000 0.000000 0.000000 0.000000 0.000000
0.060110 0.086730 0.103787 0.115121 0.121713 0.060051 0.086645 0.103685 0.115008 0.121593 0.059934 0.086475 0.103481 0.114783 0.121354 0.059758 0.086221 0.103177 0.114444 0.120996 0.059523 0.085882 0.102771 0.113993 0.120519 0.059230 0.085459 0.102264 0.113430 0.119924 0.058880 0.084953 0.101657 0.112756 0.119210 0.058472 0.084363 0.100950 0.111972 0.118380 0.058006 0.083691 0.100145 0.111077 0.117434 0.057484 0.082937 0.099241 0.110074 0.116372 0.056906 0.082102 0.098241 0.108963 0.115196 0.056273 0.081186 0.097144 0.107745 0.113907 0.055584 0.080191 0.095952 0.106421 0.112506 0.054842 0.079118 0.094666 0.104993 0.110995 0.054046 0.077968 0.093288 0.103462 0.109376 0.053197 0.076742 0.091818 0.101831 0.107649 0.052296 0.075441 0.090259 0.100099 0.105817 0.051345 0.074067 0.088612 0.098270 0.103881 0.050344 0.072620 0.086879 0.096345 0.101843 0.049294 0.071103 0.085061 0.094326 0.099707 0.048196 0.069517 0.083160 0.092215 0.097473 0.047052 0.067864 0.081179 0.090014 0.095144 0.045863 0.066144 0.079119 0.087726 0.092722 0.044629 0.064362 0.076982 0.085352 0.090210 0.043352 0.062517 0.074771 0.082896 0.087611 0.042034 0.060612 0.072488 0.080360 0.084927 0.040676 0.058649 0.070135 0.077747 0.082161 0.039279 0.056631 0.067716 0.075059 0.079316 0.037845 0.054558 0.065231 0.072299 0.076395 0.036376 0.052434 0.062685 0.069471 0.073401 0.034873 0.050261 0.060081 0.066577 0.070337 0.033337 0.048042 0.057420 0.063620 0.067207 0.031771 0.045778 0.054705 0.060604 0.064014 0.030177 0.043473 0.051941 0.057532 0.060762 0.028556 0.041130 0.049131 0.054409 0.057454 0.026910 0.038750 0.046277 0.051236 0.054095 0.025242 0.036338 0.043383 0.048019 0.050689 0.023554 0.033896 0.040454 0.044762 0.047239 0.021848 0.031429 0.037492 0.041469 0.043750 0.020128 0.028939 0.034504 0.038144 0.040227 0.018396 0.026432 0.031492 0.034792 0.036674 0.016656 0.023912 0.028463 0.031418 0.033098 0.014912 0.021384 0.025422 0.028029 0.029503 0.013170 0.018856 0.022375 0.024628 0.025895 0.011439 0.016337 0.019329 0.021223 0.022279 0.009730 0.013835 0.016289 0.017815 0.018660 0.008059 0.011357 0.013252 0.014407 0.015045 0.006448 0.008889 0.010202 0.010996 0.011443 0.004859 0.006342 0.007114 0.007595 0.007881 0.003007 0.003741 0.004144 0.004403 0.004564 