Variables="X","Y","Z","GAMMA"
ZONE T="WING" i=6,j=51,k=1, ZONETYPE=Ordered
DATAPACKING=BLOCK
VARLOCATION=([4]=CELLCENTERED)
0.000000 0.200000 0.400000 0.600000 0.800000 1.000000 0.000245 0.200147 0.400049 0.599951 0.799853 0.999755 0.000982 0.200589 0.400196 0.599804 0.799411 0.999018 0.002208 0.201325 0.400442 0.599558 0.798675 0.997792 0.003923 0.202354 0.400785 0.599215 0.797646 0.996077 0.006125 0.203675 0.401225 0.598775 0.796325 0.993875 0.008812 0.205287 0.401762 0.598238 0.794713 0.991188 0.011981 0.207188 0.402396 0.597604 0.792812 0.988019 0.015629 0.209377 0.403126 0.596874 0.790623 0.984371 0.019752 0.211851 0.403950 0.596050 0.788149 0.980248 0.024346 0.214608 0.404869 0.595131 0.785392 0.975654 0.029407 0.217644 0.405881 0.594119 0.782356 0.970593 0.034930 0.220958 0.406986 0.593014 0.779042 0.965070 0.040908 0.224545 0.408182 0.591818 0.775455 0.959092 0.047336 0.228402 0.409467 0.590533 0.771598 0.952664 0.054208 0.232525 0.410842 0.589158 0.767475 0.945792 0.061516 0.236909 0.412303 0.587697 0.763091 0.938484 0.069253 0.241552 0.413851 0.586149 0.758448 0.930747 0.077411 0.246447 0.415482 0.584518 0.753553 0.922589 0.085982 0.251589 0.417196 0.582804 0.748411 0.914018 0.094958 0.256975 0.418992 0.581008 0.743025 0.905042 0.104329 0.262597 0.420866 0.579134 0.737403 0.895671 0.114085 0.268451 0.422817 0.577183 0.731549 0.885915 0.124216 0.274530 0.424843 0.575157 0.725470 0.875784 0.134713 0.280828 0.426943 0.573057 0.719172 0.865287 0.145564 0.287338 0.429113 0.570887 0.712662 0.854436 0.156757 0.294054 0.431351 0.568649 0.705946 0.843243 0.168282 0.300969 0.433656 0.566344 0.699031 0.831718 0.180126 0.308076 0.436025 0.563975 0.691924 0.819874 0.192276 0.315365 0.438455 0.561545 0.684635 0.807724 0.204719 0.322831 0.440944 0.559056 0.677169 0.795281 0.217441 0.330465 0.443488 0.556512 0.669535 0.782559 0.230429 0.338257 0.446086 0.553914 0.661743 0.769571 0.243666 0.346200 0.448733 0.551267 0.653800 0.756334 0.257139 0.354283 0.451428 0.548572 0.645717 0.742861 0.270829 0.362498 0.454166 0.545834 0.637502 0.729171 0.284720 0.370832 0.456944 0.543056 0.629168 0.715280 0.298793 0.379276 0.459759 0.540241 0.620724 0.701207 0.313025 0.387815 0.462605 0.537395 0.612185 0.686975 0.327395 0.396437 0.465479 0.534521 0.603563 0.672605 0.341875 0.405125 0.468375 0.531625 0.594875 0.658125 0.356432 0.413859 0.471286 0.528714 0.586141 0.643568 0.371026 0.422615 0.474205 0.525795 0.577385 0.628974 0.385601 0.431361 0.477120 0.522880 0.568639 0.614399 0.400080 0.440048 0.480016 0.519984 0.559952 0.599920 0.414342 0.448605 0.482868 0.517132 0.551395 0.585658 0.428184 0.456911 0.485637 0.514363 0.543089 0.571816 0.441238 0.464743 0.488248 0.511752 0.535257 0.558762 0.452769 0.471662 0.490554 0.509446 0.528338 0.547231 0.461329 0.476798 0.492266 0.507734 0.523202 0.538671 0.464645 0.478787 0.492929 0.507071 0.521213 0.535355
-0.000000 -0.000000 -0.000000 -0.000000 -0.000000 -0.000000 0.125643 0.125643 0.125643 0.125643 0.125643 0.125643 0.251162 0.251162 0.251162 0.251162 0.251162 0.251162 0.376433 0.376433 0.376433 0.376433 0.376433 0.376433 0.501333 0.501333 0.501333 0.501333 0.501333 0.501333 0.625738 0.625738 0.625738 0.625738 0.625738 0.625738 0.749525 0.749525 0.749525 0.749525 0.749525 0.749525 0.872573 0.872573 0.872573 0.872573 0.872573 0.872573 0.994760 0.994760 0.994760 0.994760 0.994760 0.994760 1.115964 1.115964 1.115964 1.115964 1.115964 1.115964 1.236068 1.236068 1.236068 1.236068 1.236068 1.236068 1.354952 1.354952 1.354952 1.354952 1.354952 1.354952 1.472498 1.472498 1.472498 1.472498 1.472498 1.472498 1.588592 1.588592 1.588592 1.588592 1.588592 1.588592 1.703117 1.703117 1.703117 1.703117 1.703117 1.703117 1.815962 1.815962 1.815962 1.815962 1.815962 1.815962 1.927015 1.927015 1.927015 1.927015 1.927015 1.927015 2.036166 2.036166 2.036166 2.036166 2.036166 2.036166 2.143307 2.143307 2.143307 2.143307 2.143307 2.143307 2.248334 2.248334 2.248334 2.248334 2.248334 2.248334 2.351141 2.351141 2.351141 2.351141 2.351141 2.351141 2.451628 2.451628 2.451628 2.451628 2.451628 2.451628 2.549696 2.549696 2.549696 2.549696 2.549696 2.549696 2.645247 2.645247 2.645247 2.645247 2.645247 2.645247 2.738188 2.738188 2.738188 2.738188 2.738188 2.738188 2.828427 2.828427 2.828427 2.828427 2.828427 2.828427 2.915875 2.915875 2.915875 2.915875 2.915875 2.915875 3.000444 3.000444 3.000444 3.000444 3.000444 3.000444 3.082053 3.082053 3.082053 3.082053 3.082053 3.082053 3.160620 3.160620 3.160620 3.160620 3.160620 3.160620 3.236068 3.236068 3.236068 3.236068 3.236068 3.236068 3.308322 3.308322 3.308322 3.308322 3.308322 3.308322 3.377312 3.377312 3.377312 3.377312 3.377312 3.377312 3.442968 3.442968 3.442968 3.442968 3.442968 3.442968 3.505227 3.505227 3.505227 3.505227 3.505227 3.505227 3.564026 3.564026 3.564026 3.564026 3.564026 3.564026 3.619308 3.619308 3.619308 3.619308 3.619308 3.619308 3.671019 3.671019 3.671019 3.671019 3.671019 3.671019 3.719106 3.719106 3.719106 3.719106 3.719106 3.719106 3.763523 3.763523 3.763523 3.763523 3.763523 3.763523 3.804226 3.804226 3.804226 3.804226 3.804226 3.804226 3.841175 3.841175 3.841175 3.841175 3.841175 3.841175 3.874333 3.874333 3.874333 3.874333 3.874333 3.874333 3.903667 3.903667 3.903667 3.903667 3.903667 3.903667 3.929149 3.929149 3.929149 3.929149 3.929149 3.929149 3.950753 3.950753 3.950753 3.950753 3.950753 3.950753 3.968459 3.968459 3.968459 3.968459 3.968459 3.968459 3.982248 3.982248 3.982248 3.982248 3.982248 3.982248 3.992107 3.992107 3.992107 3.992107 3.992107 3.992107 3.998026 3.998026 3.998026 3.998026 3.998026 3.998026 4.000000 4.000000 4.000000 4.000000 4.000000 4.000000
0.000000 0.000000 0.000000 0.000000 0.000000 0.000000 0.000000 0.000000 0.000000 0.000000 0.000000 0.000000 0.000000 0.000000 0.000000 0.000000 0.000000 0.000000 0.000000 0.000000 0.000000 0.000000 0.000000 0.000000 0.000000 0.000000 0.000000 0.000000 0.000000 0.000000 0.000000 0.000000 0.000000 0.000000 0.000000 0.000000 0.000000 0.000000 0.000000 0.000000 0.000000 0.000000 0.000000 0.000000 0.000000 0.000000 0.000000 0.000000 0.000000 0.000000 0.000000 0.000000 0.000000 0.000000 0.000000 0.000000 0.000000 0.000000 0.000000 0.000000 0.000000 0.000000 0.000000 0.000000 0.000000 0.000000 0.000000 0.000000 0.000000 0.000000 0.000000 0.000000 0.000000 0.000000 0.000000 0.000000 0.000000 0.000000 0.000000 0.000000 0.000000 0.000000 0.000000 0.000000 0.000000 0.000000 0.000000 0.000000 0.000000 0.000000 0.000000 0.000000 0.000000 0.000000 0.000000 0.000000 0.000000 0.000000 0.000000 0.000000 0.000000 0.000000 0.000000 0.000000 0.000000 0.000000 0.000000 0.000000 0.000000 0.000000 0.000000 0.000000 0.000000 0.000000 0.000000 0.000000 0.000000 0.000000 0.000000 0.000000 0.000000 0.000000 0.000000 0.000000 0.000000 0.000000 0.000000 0.000000 0.000000 0.000000 0.000000 0.000000 0.000000 0.000000 0.000000 0.000000 0.000000 0.000000 0.000000 0.000000 0.000000 0.000000 0.000000 0.000000 0.000000 0.000000 0.000000 0.000000 0.000000 0.000000 0.000000 0.000000 0.000000 0.000000 0.000000 0.000000 0.000000 0.000000 0.000000 0.000000 0.000000 0.000000 0.000000 0.000000 0.000000 0.000000 0.000000 0.000000 0.000000 0.000000 0.000000 0.000000 0.000000 0.000000 0.000000 0.000000 0.000000 0.000000 0.000000 0.000000 0.000000 0.000000 0.000000 0.000000 0.000000 0.000000 0.000000 0.000000 0.000000 0.000000 0.000000 0.000000 0.000000 0.000000 0.000000 0.000000 0.000000 0.000000 0.000000 0.000000 0.000000 0.000000 0.000000 0.000000 0.000000 0.000000 0.000000 0.000000 0.000000 0.000000 0.000000 0.000000 0.000000 0.000000 0.000000 0.000000 0.000000 0.000000 0.000000 0.000000 0.000000 0.000000 0.000000 0.000000 0.000000 0.000000 0.000000 0.000000 0.000000 0.000000 0.000000 0.000000 0.000000 0.000000 0.000000 0.000000 0.000000 0.000000 0.000000 0.000000 0.000000 0.000000 0.000000 0.000000 0.000000 0.000000 0.000000 0.000000 0.000000 0.000000 0.000000 0.000000 0.000000 0.000000 0.000000 0.000000 0.000000 0.000000 0.000000 0.000000 0.000000 0.000000 0.000000 0.000000 0.000000 0.000000 0.000000 0.000000 0.000000 0.000000 0.000000 0.000000 0.000000 0.000000 0.000000 0.000000 0.000000 0.000000 0.000000 0.000000 0.000000 0.000000 0.000000 0.000000 0.000000 0.000000 0.000000 0.000000 0.000000 0.000000 0.000000 0.000000 0.000000 0.000000 0.000000 0.000000 0.000000 0.000000 0.000000 0.000000 0.000000 0.000000 0.000000 0.000000 0.000000 0.000000
0.055235 0.079568 0.095081 0.105339 0.111275 0.055181 0.079490 0.094988 0.105235 0.111165 0.055074 0.079335 0.094801 0.105028 0.110946 0.054912 0.079102 0.094522 0.104718 0.110618 0.054698 0.078791 0.094150 0.104304 0.110180 0.054430 0.078404 0.093686 0.103789 0.109634 0.054109 0.077940 0.093129 0.103171 0.108980 0.053735 0.077400 0.092482 0.102451 0.108219 0.053309 0.076784 0.091744 0.101631 0.107351 0.052831 0.076094 0.090916 0.100712 0.106377 0.052302 0.075329 0.089999 0.099693 0.105298 0.051722 0.074491 0.088994 0.098576 0.104116 0.051092 0.073580 0.087902 0.097363 0.102832 0.050412 0.072597 0.086724 0.096054 0.101446 0.049683 0.071544 0.085461 0.094651 0.099961 0.048906 0.070421 0.084115 0.093155 0.098377 0.048082 0.069230 0.082687 0.091568 0.096696 0.047211 0.067971 0.081178 0.089891 0.094921 0.046295 0.066647 0.079590 0.088126 0.093053 0.045334 0.065258 0.077925 0.086275 0.091093 0.044330 0.063806 0.076184 0.084340 0.089044 0.043283 0.062293 0.074369 0.082323 0.086908 0.042194 0.060719 0.072481 0.080226 0.084687 0.041066 0.059087 0.070524 0.078050 0.082384 0.039898 0.057399 0.068499 0.075799 0.080000 0.038692 0.055656 0.066408 0.073475 0.077539 0.037450 0.053860 0.064254 0.071079 0.075002 0.036172 0.052012 0.062038 0.068616 0.072393 0.034861 0.050116 0.059763 0.066086 0.069713 0.033517 0.048173 0.057432 0.063494 0.066967 0.032143 0.046185 0.055047 0.060841 0.064158 0.030739 0.044155 0.052610 0.058131 0.061287 0.029307 0.042085 0.050125 0.055367 0.058358 0.027850 0.039977 0.047595 0.052552 0.055375 0.026368 0.037834 0.045022 0.049689 0.052341 0.024864 0.035658 0.042409 0.046781 0.049260 0.023340 0.033453 0.039760 0.043832 0.046134 0.021797 0.031220 0.037078 0.040846 0.042969 0.020238 0.028965 0.034367 0.037826 0.039767 0.018666 0.026689 0.031631 0.034777 0.036534 0.017083 0.024397 0.028873 0.031702 0.033273 0.015492 0.022094 0.026098 0.028606 0.029990 0.013897 0.019783 0.023311 0.025493 0.026690 0.012305 0.017471 0.020514 0.022369 0.023378 0.010721 0.015163 0.017713 0.019237 0.020062 0.009157 0.012865 0.014906 0.016102 0.016750 0.007630 0.010572 0.012090 0.012970 0.013454 0.006151 0.008247 0.009255 0.009851 0.010189 0.004646 0.005823 0.006409 0.006772 0.006990 0.002824 0.003408 0.003719 0.003917 0.004039 