Variables="X","Y","Z","GAMMA"
ZONE T="WING" i=6,j=51,k=1, ZONETYPE=Ordered
DATAPACKING=BLOCK
VARLOCATION=([4]=CELLCENTERED)
0.000000 0.200000 0.400000 0.600000 0.800000 1.000000 0.000245 0.200147 0.400049 0.599951 0.799853 0.999755 0.000982 0.200589 0.400196 0.599804 0.799411 0.999018 0.002208 0.201325 0.400442 0.599558 0.798675 0.997792 0.003923 0.202354 0.400785 0.599215 0.797646 0.996077 0.006125 0.203675 0.401225 0.598775 0.796325 0.993875 0.008812 0.205287 0.401762 0.598238 0.794713 0.991188 0.011981 0.207188 0.402396 0.597604 0.792812 0.988019 0.015629 0.209377 0.403126 0.596874 0.790623 0.984371 0.019752 0.211851 0.403950 0.596050 0.788149 0.980248 0.024346 0.214608 0.404869 0.595131 0.785392 0.975654 0.029407 0.217644 0.405881 0.594119 0.782356 0.970593 0.034930 0.220958 0.406986 0.593014 0.779042 0.965070 0.040908 0.224545 0.408182 0.591818 0.775455 0.959092 0.047336 0.228402 0.409467 0.590533 0.771598 0.952664 0.054208 0.232525 0.410842 0.589158 0.767475 0.945792 0.061516 0.236909 0.412303 0.587697 0.763091 0.938484 0.069253 0.241552 0.413851 0.586149 0.758448 0.930747 0.077411 0.246447 0.415482 0.584518 0.753553 0.922589 0.085982 0.251589 0.417196 0.582804 0.748411 0.914018 0.094958 0.256975 0.418992 0.581008 0.743025 0.905042 0.104329 0.262597 0.420866 0.579134 0.737403 0.895671 0.114085 0.268451 0.422817 0.577183 0.731549 0.885915 0.124216 0.274530 0.424843 0.575157 0.725470 0.875784 0.134713 0.280828 0.426943 0.573057 0.719172 0.865287 0.145564 0.287338 0.429113 0.570887 0.712662 0.854436 0.156757 0.294054 0.431351 0.568649 0.705946 0.843243 0.168282 0.300969 0.433656 0.566344 0.699031 0.831718 0.180126 0.308076 0.436025 0.563975 0.691924 0.819874 0.192276 0.315365 0.438455 0.561545 0.684635 0.807724 0.204719 0.322831 0.440944 0.559056 0.677169 0.795281 0.217441 0.330465 0.443488 0.556512 0.669535 0.782559 0.230429 0.338257 0.446086 0.553914 0.661743 0.769571 0.243666 0.346200 0.448733 0.551267 0.653800 0.756334 0.257139 0.354283 0.451428 0.548572 0.645717 0.742861 0.270829 0.362498 0.454166 0.545834 0.637502 0.729171 0.284720 0.370832 0.456944 0.543056 0.629168 0.715280 0.298793 0.379276 0.459759 0.540241 0.620724 0.701207 0.313025 0.387815 0.462605 0.537395 0.612185 0.686975 0.327395 0.396437 0.465479 0.534521 0.603563 0.672605 0.341875 0.405125 0.468375 0.531625 0.594875 0.658125 0.356432 0.413859 0.471286 0.528714 0.586141 0.643568 0.371026 0.422615 0.474205 0.525795 0.577385 0.628974 0.385601 0.431361 0.477120 0.522880 0.568639 0.614399 0.400080 0.440048 0.480016 0.519984 0.559952 0.599920 0.414342 0.448605 0.482868 0.517132 0.551395 0.585658 0.428184 0.456911 0.485637 0.514363 0.543089 0.571816 0.441238 0.464743 0.488248 0.511752 0.535257 0.558762 0.452769 0.471662 0.490554 0.509446 0.528338 0.547231 0.461329 0.476798 0.492266 0.507734 0.523202 0.538671 0.464645 0.478787 0.492929 0.507071 0.521213 0.535355
-0.000000 -0.000000 -0.000000 -0.000000 -0.000000 -0.000000 0.094232 0.094232 0.094232 0.094232 0.094232 0.094232 0.188372 0.188372 0.188372 0.188372 0.188372 0.188372 0.282325 0.282325 0.282325 0.282325 0.282325 0.282325 0.376000 0.376000 0.376000 0.376000 0.376000 0.376000 0.469303 0.469303 0.469303 0.469303 0.469303 0.469303 0.562144 0.562144 0.562144 0.562144 0.562144 0.562144 0.654430 0.654430 0.654430 0.654430 0.654430 0.654430 0.746070 0.746070 0.746070 0.746070 0.746070 0.746070 0.836973 0.836973 0.836973 0.836973 0.836973 0.836973 0.927051 0.927051 0.927051 0.927051 0.927051 0.927051 1.016214 1.016214 1.016214 1.016214 1.016214 1.016214 1.104374 1.104374 1.104374 1.104374 1.104374 1.104374 1.191444 1.191444 1.191444 1.191444 1.191444 1.191444 1.277338 1.277338 1.277338 1.277338 1.277338 1.277338 1.361971 1.361971 1.361971 1.361971 1.361971 1.361971 1.445261 1.445261 1.445261 1.445261 1.445261 1.445261 1.527124 1.527124 1.527124 1.527124 1.527124 1.527124 1.607480 1.607480 1.607480 1.607480 1.607480 1.607480 1.686250 1.686250 1.686250 1.686250 1.686250 1.686250 1.763356 1.763356 1.763356 1.763356 1.763356 1.763356 1.838721 1.838721 1.838721 1.838721 1.838721 1.838721 1.912272 1.912272 1.912272 1.912272 1.912272 1.912272 1.983936 1.983936 1.983936 1.983936 1.983936 1.983936 2.053641 2.053641 2.053641 2.053641 2.053641 2.053641 2.121320 2.121320 2.121320 2.121320 2.121320 2.121320 2.186906 2.186906 2.186906 2.186906 2.186906 2.186906 2.250333 2.250333 2.250333 2.250333 2.250333 2.250333 2.311540 2.311540 2.311540 2.311540 2.311540 2.311540 2.370465 2.370465 2.370465 2.370465 2.370465 2.370465 2.427051 2.427051 2.427051 2.427051 2.427051 2.427051 2.481242 2.481242 2.481242 2.481242 2.481242 2.481242 2.532984 2.532984 2.532984 2.532984 2.532984 2.532984 2.582226 2.582226 2.582226 2.582226 2.582226 2.582226 2.628920 2.628920 2.628920 2.628920 2.628920 2.628920 2.673020 2.673020 2.673020 2.673020 2.673020 2.673020 2.714481 2.714481 2.714481 2.714481 2.714481 2.714481 2.753264 2.753264 2.753264 2.753264 2.753264 2.753264 2.789329 2.789329 2.789329 2.789329 2.789329 2.789329 2.822642 2.822642 2.822642 2.822642 2.822642 2.822642 2.853170 2.853170 2.853170 2.853170 2.853170 2.853170 2.880881 2.880881 2.880881 2.880881 2.880881 2.880881 2.905749 2.905749 2.905749 2.905749 2.905749 2.905749 2.927750 2.927750 2.927750 2.927750 2.927750 2.927750 2.946862 2.946862 2.946862 2.946862 2.946862 2.946862 2.963065 2.963065 2.963065 2.963065 2.963065 2.963065 2.976344 2.976344 2.976344 2.976344 2.976344 2.976344 2.986686 2.986686 2.986686 2.986686 2.986686 2.986686 2.994080 2.994080 2.994080 2.994080 2.994080 2.994080 2.998520 2.998520 2.998520 2.998520 2.998520 2.998520 3.000000 3.000000 3.000000 3.000000 3.000000 3.000000
0.000000 0.000000 0.000000 0.000000 0.000000 0.000000 0.000000 0.000000 0.000000 0.000000 0.000000 0.000000 0.000000 0.000000 0.000000 0.000000 0.000000 0.000000 0.000000 0.000000 0.000000 0.000000 0.000000 0.000000 0.000000 0.000000 0.000000 0.000000 0.000000 0.000000 0.000000 0.000000 0.000000 0.000000 0.000000 0.000000 0.000000 0.000000 0.000000 0.000000 0.000000 0.000000 0.000000 0.000000 0.000000 0.000000 0.000000 0.000000 0.000000 0.000000 0.000000 0.000000 0.000000 0.000000 0.000000 0.000000 0.000000 0.000000 0.000000 0.000000 0.000000 0.000000 0.000000 0.000000 0.000000 0.000000 0.000000 0.000000 0.000000 0.000000 0.000000 0.000000 0.000000 0.000000 0.000000 0.000000 0.000000 0.000000 0.000000 0.000000 0.000000 0.000000 0.000000 0.000000 0.000000 0.000000 0.000000 0.000000 0.000000 0.000000 0.000000 0.000000 0.000000 0.000000 0.000000 0.000000 0.000000 0.000000 0.000000 0.000000 0.000000 0.000000 0.000000 0.000000 0.000000 0.000000 0.000000 0.000000 0.000000 0.000000 0.000000 0.000000 0.000000 0.000000 0.000000 0.000000 0.000000 0.000000 0.000000 0.000000 0.000000 0.000000 0.000000 0.000000 0.000000 0.000000 0.000000 0.000000 0.000000 0.000000 0.000000 0.000000 0.000000 0.000000 0.000000 0.000000 0.000000 0.000000 0.000000 0.000000 0.000000 0.000000 0.000000 0.000000 0.000000 0.000000 0.000000 0.000000 0.000000 0.000000 0.000000 0.000000 0.000000 0.000000 0.000000 0.000000 0.000000 0.000000 0.000000 0.000000 0.000000 0.000000 0.000000 0.000000 0.000000 0.000000 0.000000 0.000000 0.000000 0.000000 0.000000 0.000000 0.000000 0.000000 0.000000 0.000000 0.000000 0.000000 0.000000 0.000000 0.000000 0.000000 0.000000 0.000000 0.000000 0.000000 0.000000 0.000000 0.000000 0.000000 0.000000 0.000000 0.000000 0.000000 0.000000 0.000000 0.000000 0.000000 0.000000 0.000000 0.000000 0.000000 0.000000 0.000000 0.000000 0.000000 0.000000 0.000000 0.000000 0.000000 0.000000 0.000000 0.000000 0.000000 0.000000 0.000000 0.000000 0.000000 0.000000 0.000000 0.000000 0.000000 0.000000 0.000000 0.000000 0.000000 0.000000 0.000000 0.000000 0.000000 0.000000 0.000000 0.000000 0.000000 0.000000 0.000000 0.000000 0.000000 0.000000 0.000000 0.000000 0.000000 0.000000 0.000000 0.000000 0.000000 0.000000 0.000000 0.000000 0.000000 0.000000 0.000000 0.000000 0.000000 0.000000 0.000000 0.000000 0.000000 0.000000 0.000000 0.000000 0.000000 0.000000 0.000000 0.000000 0.000000 0.000000 0.000000 0.000000 0.000000 0.000000 0.000000 0.000000 0.000000 0.000000 0.000000 0.000000 0.000000 0.000000 0.000000 0.000000 0.000000 0.000000 0.000000 0.000000 0.000000 0.000000 0.000000 0.000000 0.000000 0.000000 0.000000 0.000000 0.000000 0.000000 0.000000 0.000000 0.000000 0.000000 0.000000 0.000000 0.000000 0.000000 0.000000 0.000000 0.000000
0.051847 0.074570 0.088985 0.098470 0.103933 0.051796 0.074497 0.088898 0.098373 0.103830 0.051696 0.074352 0.088724 0.098179 0.103625 0.051545 0.074134 0.088462 0.097889 0.103317 0.051344 0.073843 0.088114 0.097502 0.102907 0.051093 0.073481 0.087679 0.097019 0.102396 0.050793 0.073047 0.087159 0.096440 0.101783 0.050443 0.072542 0.086553 0.095767 0.101070 0.050044 0.071965 0.085862 0.094999 0.100257 0.049597 0.071319 0.085087 0.094137 0.099345 0.049102 0.070604 0.084229 0.093183 0.098335 0.048559 0.069819 0.083288 0.092138 0.097227 0.047970 0.068967 0.082266 0.091002 0.096024 0.047334 0.068048 0.081163 0.089776 0.094726 0.046652 0.067062 0.079981 0.088462 0.093335 0.045925 0.066012 0.078721 0.087062 0.091851 0.045154 0.064897 0.077385 0.085576 0.090278 0.044340 0.063720 0.075973 0.084006 0.088615 0.043482 0.062481 0.074486 0.082353 0.086865 0.042584 0.061182 0.072928 0.080620 0.085030 0.041644 0.059823 0.071299 0.078809 0.083111 0.040665 0.058407 0.069600 0.076920 0.081110 0.039647 0.056936 0.067834 0.074957 0.079030 0.038591 0.055409 0.066003 0.072920 0.076873 0.037498 0.053830 0.064108 0.070813 0.074641 0.036371 0.052200 0.062152 0.068637 0.072336 0.035209 0.050520 0.060136 0.066395 0.069960 0.034014 0.048792 0.058063 0.064089 0.067517 0.032787 0.047019 0.055935 0.061721 0.065009 0.031531 0.045202 0.053754 0.059295 0.062438 0.030245 0.043344 0.051523 0.056812 0.059807 0.028932 0.041445 0.049244 0.054276 0.057119 0.027593 0.039510 0.046920 0.051689 0.054378 0.026229 0.037539 0.044553 0.049055 0.051586 0.024843 0.035535 0.042147 0.046376 0.048747 0.023436 0.033501 0.039703 0.043655 0.045863 0.022009 0.031439 0.037226 0.040896 0.042939 0.020565 0.029352 0.034719 0.038103 0.039978 0.019105 0.027243 0.032183 0.035278 0.036984 0.017631 0.025115 0.029624 0.032425 0.033961 0.016147 0.022971 0.027044 0.029549 0.030913 0.014654 0.020815 0.024448 0.026654 0.027847 0.013157 0.018651 0.021838 0.023742 0.024766 0.011660 0.016485 0.019217 0.020820 0.021677 0.010171 0.014320 0.016588 0.017892 0.018587 0.008700 0.012158 0.013949 0.014962 0.015506 0.007263 0.009988 0.011298 0.012038 0.012443 0.005872 0.007774 0.008632 0.009132 0.009416 0.004438 0.005465 0.005966 0.006272 0.006455 0.002681 0.003191 0.003459 0.003627 0.003729 