Variables="X","Y","Z","GAMMA"
ZONE T="WING" i=6,j=51,k=1, ZONETYPE=Ordered
DATAPACKING=BLOCK
VARLOCATION=([4]=CELLCENTERED)
0.000000 0.200000 0.400000 0.600000 0.800000 1.000000 0.000245 0.200147 0.400049 0.599951 0.799853 0.999755 0.000982 0.200589 0.400196 0.599804 0.799411 0.999018 0.002208 0.201325 0.400442 0.599558 0.798675 0.997792 0.003923 0.202354 0.400785 0.599215 0.797646 0.996077 0.006125 0.203675 0.401225 0.598775 0.796325 0.993875 0.008812 0.205287 0.401762 0.598238 0.794713 0.991188 0.011981 0.207188 0.402396 0.597604 0.792812 0.988019 0.015629 0.209377 0.403126 0.596874 0.790623 0.984371 0.019752 0.211851 0.403950 0.596050 0.788149 0.980248 0.024346 0.214608 0.404869 0.595131 0.785392 0.975654 0.029407 0.217644 0.405881 0.594119 0.782356 0.970593 0.034930 0.220958 0.406986 0.593014 0.779042 0.965070 0.040908 0.224545 0.408182 0.591818 0.775455 0.959092 0.047336 0.228402 0.409467 0.590533 0.771598 0.952664 0.054208 0.232525 0.410842 0.589158 0.767475 0.945792 0.061516 0.236909 0.412303 0.587697 0.763091 0.938484 0.069253 0.241552 0.413851 0.586149 0.758448 0.930747 0.077411 0.246447 0.415482 0.584518 0.753553 0.922589 0.085982 0.251589 0.417196 0.582804 0.748411 0.914018 0.094958 0.256975 0.418992 0.581008 0.743025 0.905042 0.104329 0.262597 0.420866 0.579134 0.737403 0.895671 0.114085 0.268451 0.422817 0.577183 0.731549 0.885915 0.124216 0.274530 0.424843 0.575157 0.725470 0.875784 0.134713 0.280828 0.426943 0.573057 0.719172 0.865287 0.145564 0.287338 0.429113 0.570887 0.712662 0.854436 0.156757 0.294054 0.431351 0.568649 0.705946 0.843243 0.168282 0.300969 0.433656 0.566344 0.699031 0.831718 0.180126 0.308076 0.436025 0.563975 0.691924 0.819874 0.192276 0.315365 0.438455 0.561545 0.684635 0.807724 0.204719 0.322831 0.440944 0.559056 0.677169 0.795281 0.217441 0.330465 0.443488 0.556512 0.669535 0.782559 0.230429 0.338257 0.446086 0.553914 0.661743 0.769571 0.243666 0.346200 0.448733 0.551267 0.653800 0.756334 0.257139 0.354283 0.451428 0.548572 0.645717 0.742861 0.270829 0.362498 0.454166 0.545834 0.637502 0.729171 0.284720 0.370832 0.456944 0.543056 0.629168 0.715280 0.298793 0.379276 0.459759 0.540241 0.620724 0.701207 0.313025 0.387815 0.462605 0.537395 0.612185 0.686975 0.327395 0.396437 0.465479 0.534521 0.603563 0.672605 0.341875 0.405125 0.468375 0.531625 0.594875 0.658125 0.356432 0.413859 0.471286 0.528714 0.586141 0.643568 0.371026 0.422615 0.474205 0.525795 0.577385 0.628974 0.385601 0.431361 0.477120 0.522880 0.568639 0.614399 0.400080 0.440048 0.480016 0.519984 0.559952 0.599920 0.414342 0.448605 0.482868 0.517132 0.551395 0.585658 0.428184 0.456911 0.485637 0.514363 0.543089 0.571816 0.441238 0.464743 0.488248 0.511752 0.535257 0.558762 0.452769 0.471662 0.490554 0.509446 0.528338 0.547231 0.461329 0.476798 0.492266 0.507734 0.523202 0.538671 0.464645 0.478787 0.492929 0.507071 0.521213 0.535355
-0.000000 -0.000000 -0.000000 -0.000000 -0.000000 -0.000000 0.031411 0.031411 0.031411 0.031411 0.031411 0.031411 0.062791 0.062791 0.062791 0.062791 0.062791 0.062791 0.094108 0.094108 0.094108 0.094108 0.094108 0.094108 0.125333 0.125333 0.125333 0.125333 0.125333 0.125333 0.156434 0.156434 0.156434 0.156434 0.156434 0.156434 0.187381 0.187381 0.187381 0.187381 0.187381 0.187381 0.218143 0.218143 0.218143 0.218143 0.218143 0.218143 0.248690 0.248690 0.248690 0.248690 0.248690 0.248690 0.278991 0.278991 0.278991 0.278991 0.278991 0.278991 0.309017 0.309017 0.309017 0.309017 0.309017 0.309017 0.338738 0.338738 0.338738 0.338738 0.338738 0.338738 0.368125 0.368125 0.368125 0.368125 0.368125 0.368125 0.397148 0.397148 0.397148 0.397148 0.397148 0.397148 0.425779 0.425779 0.425779 0.425779 0.425779 0.425779 0.453990 0.453990 0.453990 0.453990 0.453990 0.453990 0.481754 0.481754 0.481754 0.481754 0.481754 0.481754 0.509041 0.509041 0.509041 0.509041 0.509041 0.509041 0.535827 0.535827 0.535827 0.535827 0.535827 0.535827 0.562083 0.562083 0.562083 0.562083 0.562083 0.562083 0.587785 0.587785 0.587785 0.587785 0.587785 0.587785 0.612907 0.612907 0.612907 0.612907 0.612907 0.612907 0.637424 0.637424 0.637424 0.637424 0.637424 0.637424 0.661312 0.661312 0.661312 0.661312 0.661312 0.661312 0.684547 0.684547 0.684547 0.684547 0.684547 0.684547 0.707107 0.707107 0.707107 0.707107 0.707107 0.707107 0.728969 0.728969 0.728969 0.728969 0.728969 0.728969 0.750111 0.750111 0.750111 0.750111 0.750111 0.750111 0.770513 0.770513 0.770513 0.770513 0.770513 0.770513 0.790155 0.790155 0.790155 0.790155 0.790155 0.790155 0.809017 0.809017 0.809017 0.809017 0.809017 0.809017 0.827081 0.827081 0.827081 0.827081 0.827081 0.827081 0.844328 0.844328 0.844328 0.844328 0.844328 0.844328 0.860742 0.860742 0.860742 0.860742 0.860742 0.860742 0.876307 0.876307 0.876307 0.876307 0.876307 0.876307 0.891007 0.891007 0.891007 0.891007 0.891007 0.891007 0.904827 0.904827 0.904827 0.904827 0.904827 0.904827 0.917755 0.917755 0.917755 0.917755 0.917755 0.917755 0.929776 0.929776 0.929776 0.929776 0.929776 0.929776 0.940881 0.940881 0.940881 0.940881 0.940881 0.940881 0.951057 0.951057 0.951057 0.951057 0.951057 0.951057 0.960294 0.960294 0.960294 0.960294 0.960294 0.960294 0.968583 0.968583 0.968583 0.968583 0.968583 0.968583 0.975917 0.975917 0.975917 0.975917 0.975917 0.975917 0.982287 0.982287 0.982287 0.982287 0.982287 0.982287 0.987688 0.987688 0.987688 0.987688 0.987688 0.987688 0.992115 0.992115 0.992115 0.992115 0.992115 0.992115 0.995562 0.995562 0.995562 0.995562 0.995562 0.995562 0.998027 0.998027 0.998027 0.998027 0.998027 0.998027 0.999507 0.999507 0.999507 0.999507 0.999507 0.999507 1.000000 1.000000 1.000000 1.000000 1.000000 1.000000
0.000000 0.000000 0.000000 0.000000 0.000000 0.000000 0.000000 0.000000 0.000000 0.000000 0.000000 0.000000 0.000000 0.000000 0.000000 0.000000 0.000000 0.000000 0.000000 0.000000 0.000000 0.000000 0.000000 0.000000 0.000000 0.000000 0.000000 0.000000 0.000000 0.000000 0.000000 0.000000 0.000000 0.000000 0.000000 0.000000 0.000000 0.000000 0.000000 0.000000 0.000000 0.000000 0.000000 0.000000 0.000000 0.000000 0.000000 0.000000 0.000000 0.000000 0.000000 0.000000 0.000000 0.000000 0.000000 0.000000 0.000000 0.000000 0.000000 0.000000 0.000000 0.000000 0.000000 0.000000 0.000000 0.000000 0.000000 0.000000 0.000000 0.000000 0.000000 0.000000 0.000000 0.000000 0.000000 0.000000 0.000000 0.000000 0.000000 0.000000 0.000000 0.000000 0.000000 0.000000 0.000000 0.000000 0.000000 0.000000 0.000000 0.000000 0.000000 0.000000 0.000000 0.000000 0.000000 0.000000 0.000000 0.000000 0.000000 0.000000 0.000000 0.000000 0.000000 0.000000 0.000000 0.000000 0.000000 0.000000 0.000000 0.000000 0.000000 0.000000 0.000000 0.000000 0.000000 0.000000 0.000000 0.000000 0.000000 0.000000 0.000000 0.000000 0.000000 0.000000 0.000000 0.000000 0.000000 0.000000 0.000000 0.000000 0.000000 0.000000 0.000000 0.000000 0.000000 0.000000 0.000000 0.000000 0.000000 0.000000 0.000000 0.000000 0.000000 0.000000 0.000000 0.000000 0.000000 0.000000 0.000000 0.000000 0.000000 0.000000 0.000000 0.000000 0.000000 0.000000 0.000000 0.000000 0.000000 0.000000 0.000000 0.000000 0.000000 0.000000 0.000000 0.000000 0.000000 0.000000 0.000000 0.000000 0.000000 0.000000 0.000000 0.000000 0.000000 0.000000 0.000000 0.000000 0.000000 0.000000 0.000000 0.000000 0.000000 0.000000 0.000000 0.000000 0.000000 0.000000 0.000000 0.000000 0.000000 0.000000 0.000000 0.000000 0.000000 0.000000 0.000000 0.000000 0.000000 0.000000 0.000000 0.000000 0.000000 0.000000 0.000000 0.000000 0.000000 0.000000 0.000000 0.000000 0.000000 0.000000 0.000000 0.000000 0.000000 0.000000 0.000000 0.000000 0.000000 0.000000 0.000000 0.000000 0.000000 0.000000 0.000000 0.000000 0.000000 0.000000 0.000000 0.000000 0.000000 0.000000 0.000000 0.000000 0.000000 0.000000 0.000000 0.000000 0.000000 0.000000 0.000000 0.000000 0.000000 0.000000 0.000000 0.000000 0.000000 0.000000 0.000000 0.000000 0.000000 0.000000 0.000000 0.000000 0.000000 0.000000 0.000000 0.000000 0.000000 0.000000 0.000000 0.000000 0.000000 0.000000 0.000000 0.000000 0.000000 0.000000 0.000000 0.000000 0.000000 0.000000 0.000000 0.000000 0.000000 0.000000 0.000000 0.000000 0.000000 0.000000 0.000000 0.000000 0.000000 0.000000 0.000000 0.000000 0.000000 0.000000 0.000000 0.000000 0.000000 0.000000 0.000000 0.000000 0.000000 0.000000 0.000000 0.000000 0.000000 0.000000 0.000000 0.000000 0.000000 0.000000 0.000000 0.000000
0.034242 0.048410 0.056881 0.062122 0.064962 0.034209 0.048363 0.056825 0.062060 0.064897 0.034144 0.048270 0.056714 0.061936 0.064766 0.034046 0.048130 0.056547 0.061752 0.064571 0.033916 0.047945 0.056326 0.061505 0.064310 0.033754 0.047713 0.056049 0.061198 0.063986 0.033560 0.047435 0.055717 0.060830 0.063597 0.033333 0.047111 0.055331 0.060402 0.063144 0.033075 0.046743 0.054891 0.059913 0.062627 0.032785 0.046329 0.054397 0.059365 0.062048 0.032464 0.045871 0.053850 0.058759 0.061407 0.032113 0.045369 0.053251 0.058094 0.060705 0.031730 0.044824 0.052600 0.057372 0.059941 0.031318 0.044235 0.051897 0.056593 0.059118 0.030876 0.043604 0.051145 0.055758 0.058236 0.030404 0.042932 0.050342 0.054868 0.057296 0.029903 0.042218 0.049491 0.053924 0.056298 0.029374 0.041464 0.048592 0.052927 0.055245 0.028817 0.040670 0.047645 0.051877 0.054137 0.028233 0.039838 0.046653 0.050777 0.052975 0.027621 0.038967 0.045615 0.049627 0.051761 0.026984 0.038060 0.044534 0.048429 0.050496 0.026321 0.037117 0.043410 0.047184 0.049182 0.025632 0.036138 0.042244 0.045892 0.047819 0.024919 0.035125 0.041038 0.044557 0.046410 0.024182 0.034078 0.039793 0.043178 0.044956 0.023423 0.033000 0.038510 0.041758 0.043459 0.022640 0.031891 0.037190 0.040297 0.041920 0.021836 0.030751 0.035835 0.038799 0.040341 0.021011 0.029583 0.034447 0.037264 0.038725 0.020166 0.028387 0.033027 0.035695 0.037073 0.019302 0.027164 0.031576 0.034092 0.035387 0.018419 0.025917 0.030096 0.032458 0.033669 0.017518 0.024645 0.028589 0.030795 0.031922 0.016600 0.023352 0.027055 0.029104 0.030147 0.015667 0.022036 0.025498 0.027389 0.028347 0.014719 0.020702 0.023918 0.025650 0.026525 0.013758 0.019349 0.022317 0.023890 0.024682 0.012784 0.017979 0.020697 0.022112 0.022823 0.011800 0.016595 0.019059 0.020317 0.020948 0.010807 0.015198 0.017405 0.018509 0.019062 0.009808 0.013790 0.015737 0.016688 0.017167 0.008806 0.012372 0.014055 0.014860 0.015267 0.007804 0.010948 0.012361 0.013025 0.013365 0.006809 0.009516 0.010657 0.011188 0.011465 0.005830 0.008073 0.008943 0.009351 0.009570 0.004882 0.006605 0.007223 0.007521 0.007686 0.003972 0.005097 0.005501 0.005704 0.005820 0.003014 0.003548 0.003791 0.003918 0.003989 0.001802 0.002063 0.002195 0.002266 0.002304 