Variables="X","Y","Z","GAMMA"
ZONE T="WING" i=6,j=51,k=1, ZONETYPE=Ordered
DATAPACKING=BLOCK
VARLOCATION=([4]=CELLCENTERED)
0.000000 0.500000 1.000000 1.500000 2.000000 2.500000 0.000000 0.494000 0.988000 1.482000 1.976000 2.470000 0.000000 0.488000 0.976000 1.464000 1.952000 2.440000 0.000000 0.482000 0.964000 1.446000 1.928000 2.410000 0.000000 0.476000 0.952000 1.428000 1.904000 2.380000 0.000000 0.470000 0.940000 1.410000 1.880000 2.350000 0.000000 0.464000 0.928000 1.392000 1.856000 2.320000 0.000000 0.458000 0.916000 1.374000 1.832000 2.290000 0.000000 0.452000 0.904000 1.356000 1.808000 2.260000 0.000000 0.446000 0.892000 1.338000 1.784000 2.230000 0.000000 0.440000 0.880000 1.320000 1.760000 2.200000 0.000000 0.434000 0.868000 1.302000 1.736000 2.170000 0.000000 0.428000 0.856000 1.284000 1.712000 2.140000 0.000000 0.422000 0.844000 1.266000 1.688000 2.110000 0.000000 0.416000 0.832000 1.248000 1.664000 2.080000 0.000000 0.410000 0.820000 1.230000 1.640000 2.050000 0.000000 0.404000 0.808000 1.212000 1.616000 2.020000 0.000000 0.398000 0.796000 1.194000 1.592000 1.990000 0.000000 0.392000 0.784000 1.176000 1.568000 1.960000 0.000000 0.386000 0.772000 1.158000 1.544000 1.930000 0.000000 0.380000 0.760000 1.140000 1.520000 1.900000 0.000000 0.374000 0.748000 1.122000 1.496000 1.870000 0.000000 0.368000 0.736000 1.104000 1.472000 1.840000 0.000000 0.362000 0.724000 1.086000 1.448000 1.810000 0.000000 0.356000 0.712000 1.068000 1.424000 1.780000 0.000000 0.350000 0.700000 1.050000 1.400000 1.750000 0.000000 0.344000 0.688000 1.032000 1.376000 1.720000 0.000000 0.338000 0.676000 1.014000 1.352000 1.690000 0.000000 0.332000 0.664000 0.996000 1.328000 1.660000 0.000000 0.326000 0.652000 0.978000 1.304000 1.630000 0.000000 0.320000 0.640000 0.960000 1.280000 1.600000 0.000000 0.314000 0.628000 0.942000 1.256000 1.570000 0.000000 0.308000 0.616000 0.924000 1.232000 1.540000 0.000000 0.302000 0.604000 0.906000 1.208000 1.510000 0.000000 0.296000 0.592000 0.888000 1.184000 1.480000 0.000000 0.290000 0.580000 0.870000 1.160000 1.450000 0.000000 0.284000 0.568000 0.852000 1.136000 1.420000 0.000000 0.278000 0.556000 0.834000 1.112000 1.390000 0.000000 0.272000 0.544000 0.816000 1.088000 1.360000 0.000000 0.266000 0.532000 0.798000 1.064000 1.330000 0.000000 0.260000 0.520000 0.780000 1.040000 1.300000 0.000000 0.254000 0.508000 0.762000 1.016000 1.270000 0.000000 0.248000 0.496000 0.744000 0.992000 1.240000 0.000000 0.242000 0.484000 0.726000 0.968000 1.210000 0.000000 0.236000 0.472000 0.708000 0.944000 1.180000 0.000000 0.230000 0.460000 0.690000 0.920000 1.150000 0.000000 0.224000 0.448000 0.672000 0.896000 1.120000 0.000000 0.218000 0.436000 0.654000 0.872000 1.090000 0.000000 0.212000 0.424000 0.636000 0.848000 1.060000 0.000000 0.206000 0.412000 0.618000 0.824000 1.030000 0.000000 0.200000 0.400000 0.600000 0.800000 1.000000
0.000000 0.000000 0.000000 0.000000 0.000000 0.000000 0.072800 0.072800 0.072800 0.072800 0.072800 0.072800 0.145600 0.145600 0.145600 0.145600 0.145600 0.145600 0.218400 0.218400 0.218400 0.218400 0.218400 0.218400 0.291200 0.291200 0.291200 0.291200 0.291200 0.291200 0.364000 0.364000 0.364000 0.364000 0.364000 0.364000 0.436800 0.436800 0.436800 0.436800 0.436800 0.436800 0.509600 0.509600 0.509600 0.509600 0.509600 0.509600 0.582400 0.582400 0.582400 0.582400 0.582400 0.582400 0.655200 0.655200 0.655200 0.655200 0.655200 0.655200 0.728000 0.728000 0.728000 0.728000 0.728000 0.728000 0.800800 0.800800 0.800800 0.800800 0.800800 0.800800 0.873600 0.873600 0.873600 0.873600 0.873600 0.873600 0.946400 0.946400 0.946400 0.946400 0.946400 0.946400 1.019200 1.019200 1.019200 1.019200 1.019200 1.019200 1.092000 1.092000 1.092000 1.092000 1.092000 1.092000 1.164800 1.164800 1.164800 1.164800 1.164800 1.164800 1.237600 1.237600 1.237600 1.237600 1.237600 1.237600 1.310400 1.310400 1.310400 1.310400 1.310400 1.310400 1.383200 1.383200 1.383200 1.383200 1.383200 1.383200 1.456000 1.456000 1.456000 1.456000 1.456000 1.456000 1.528800 1.528800 1.528800 1.528800 1.528800 1.528800 1.601600 1.601600 1.601600 1.601600 1.601600 1.601600 1.674400 1.674400 1.674400 1.674400 1.674400 1.674400 1.747200 1.747200 1.747200 1.747200 1.747200 1.747200 1.820000 1.820000 1.820000 1.820000 1.820000 1.820000 1.892800 1.892800 1.892800 1.892800 1.892800 1.892800 1.965600 1.965600 1.965600 1.965600 1.965600 1.965600 2.038400 2.038400 2.038400 2.038400 2.038400 2.038400 2.111200 2.111200 2.111200 2.111200 2.111200 2.111200 2.184000 2.184000 2.184000 2.184000 2.184000 2.184000 2.256800 2.256800 2.256800 2.256800 2.256800 2.256800 2.329600 2.329600 2.329600 2.329600 2.329600 2.329600 2.402400 2.402400 2.402400 2.402400 2.402400 2.402400 2.475200 2.475200 2.475200 2.475200 2.475200 2.475200 2.548000 2.548000 2.548000 2.548000 2.548000 2.548000 2.620800 2.620800 2.620800 2.620800 2.620800 2.620800 2.693600 2.693600 2.693600 2.693600 2.693600 2.693600 2.766400 2.766400 2.766400 2.766400 2.766400 2.766400 2.839200 2.839200 2.839200 2.839200 2.839200 2.839200 2.912000 2.912000 2.912000 2.912000 2.912000 2.912000 2.984800 2.984800 2.984800 2.984800 2.984800 2.984800 3.057600 3.057600 3.057600 3.057600 3.057600 3.057600 3.130400 3.130400 3.130400 3.130400 3.130400 3.130400 3.203200 3.203200 3.203200 3.203200 3.203200 3.203200 3.276000 3.276000 3.276000 3.276000 3.276000 3.276000 3.348800 3.348800 3.348800 3.348800 3.348800 3.348800 3.421600 3.421600 3.421600 3.421600 3.421600 3.421600 3.494400 3.494400 3.494400 3.494400 3.494400 3.494400 3.567200 3.567200 3.567200 3.567200 3.567200 3.567200 3.640000 3.640000 3.640000 3.640000 3.640000 3.640000
0.000000 0.000000 0.000000 0.000000 0.000000 0.000000 0.000000 0.000000 0.000000 0.000000 0.000000 0.000000 0.000000 0.000000 0.000000 0.000000 0.000000 0.000000 0.000000 0.000000 0.000000 0.000000 0.000000 0.000000 0.000000 0.000000 0.000000 0.000000 0.000000 0.000000 0.000000 0.000000 0.000000 0.000000 0.000000 0.000000 0.000000 0.000000 0.000000 0.000000 0.000000 0.000000 0.000000 0.000000 0.000000 0.000000 0.000000 0.000000 0.000000 0.000000 0.000000 0.000000 0.000000 0.000000 0.000000 0.000000 0.000000 0.000000 0.000000 0.000000 0.000000 0.000000 0.000000 0.000000 0.000000 0.000000 0.000000 0.000000 0.000000 0.000000 0.000000 0.000000 0.000000 0.000000 0.000000 0.000000 0.000000 0.000000 0.000000 0.000000 0.000000 0.000000 0.000000 0.000000 0.000000 0.000000 0.000000 0.000000 0.000000 0.000000 0.000000 0.000000 0.000000 0.000000 0.000000 0.000000 0.000000 0.000000 0.000000 0.000000 0.000000 0.000000 0.000000 0.000000 0.000000 0.000000 0.000000 0.000000 0.000000 0.000000 0.000000 0.000000 0.000000 0.000000 0.000000 0.000000 0.000000 0.000000 0.000000 0.000000 0.000000 0.000000 0.000000 0.000000 0.000000 0.000000 0.000000 0.000000 0.000000 0.000000 0.000000 0.000000 0.000000 0.000000 0.000000 0.000000 0.000000 0.000000 0.000000 0.000000 0.000000 0.000000 0.000000 0.000000 0.000000 0.000000 0.000000 0.000000 0.000000 0.000000 0.000000 0.000000 0.000000 0.000000 0.000000 0.000000 0.000000 0.000000 0.000000 0.000000 0.000000 0.000000 0.000000 0.000000 0.000000 0.000000 0.000000 0.000000 0.000000 0.000000 0.000000 0.000000 0.000000 0.000000 0.000000 0.000000 0.000000 0.000000 0.000000 0.000000 0.000000 0.000000 0.000000 0.000000 0.000000 0.000000 0.000000 0.000000 0.000000 0.000000 0.000000 0.000000 0.000000 0.000000 0.000000 0.000000 0.000000 0.000000 0.000000 0.000000 0.000000 0.000000 0.000000 0.000000 0.000000 0.000000 0.000000 0.000000 0.000000 0.000000 0.000000 0.000000 0.000000 0.000000 0.000000 0.000000 0.000000 0.000000 0.000000 0.000000 0.000000 0.000000 0.000000 0.000000 0.000000 0.000000 0.000000 0.000000 0.000000 0.000000 0.000000 0.000000 0.000000 0.000000 0.000000 0.000000 0.000000 0.000000 0.000000 0.000000 0.000000 0.000000 0.000000 0.000000 0.000000 0.000000 0.000000 0.000000 0.000000 0.000000 0.000000 0.000000 0.000000 0.000000 0.000000 0.000000 0.000000 0.000000 0.000000 0.000000 0.000000 0.000000 0.000000 0.000000 0.000000 0.000000 0.000000 0.000000 0.000000 0.000000 0.000000 0.000000 0.000000 0.000000 0.000000 0.000000 0.000000 0.000000 0.000000 0.000000 0.000000 0.000000 0.000000 0.000000 0.000000 0.000000 0.000000 0.000000 0.000000 0.000000 0.000000 0.000000 0.000000 0.000000 0.000000 0.000000 0.000000 0.000000 0.000000 0.000000 0.000000 0.000000 0.000000 0.000000 0.000000 0.000000
0.101401 0.143571 0.168569 0.183688 0.191433 0.101145 0.143198 0.168178 0.183341 0.191178 0.100765 0.142659 0.167606 0.182813 0.190752 0.100299 0.142012 0.166912 0.182156 0.190188 0.099766 0.141284 0.166123 0.181392 0.189502 0.099179 0.140486 0.165252 0.180534 0.188706 0.098543 0.139626 0.164306 0.179587 0.187807 0.097864 0.138707 0.163288 0.178555 0.186810 0.097144 0.137732 0.162202 0.177443 0.185720 0.096386 0.136704 0.161049 0.176252 0.184540 0.095593 0.135623 0.159831 0.174985 0.183273 0.094765 0.134491 0.158550 0.173642 0.181922 0.093904 0.133310 0.157207 0.172227 0.180488 0.093010 0.132080 0.155801 0.170738 0.178974 0.092085 0.130801 0.154335 0.169179 0.177381 0.091128 0.129474 0.152809 0.167548 0.175709 0.090141 0.128099 0.151222 0.165848 0.173960 0.089122 0.126678 0.149575 0.164077 0.172134 0.088073 0.125208 0.147868 0.162236 0.170232 0.086993 0.123691 0.146100 0.160326 0.168253 0.085883 0.122126 0.144272 0.158345 0.166198 0.084741 0.120513 0.142383 0.156293 0.164065 0.083567 0.118851 0.140432 0.154169 0.161854 0.082362 0.117139 0.138417 0.151973 0.159564 0.081124 0.115375 0.136338 0.149701 0.157193 0.079852 0.113560 0.134193 0.147353 0.154739 0.078545 0.111690 0.131979 0.144927 0.152200 0.077203 0.109765 0.129694 0.142419 0.149574 0.075823 0.107781 0.127336 0.139826 0.146855 0.074404 0.105736 0.124900 0.137144 0.144041 0.072944 0.103626 0.122383 0.134369 0.141127 0.071441 0.101448 0.119780 0.131495 0.138106 0.069890 0.099197 0.117084 0.128516 0.134972 0.068290 0.096868 0.114289 0.125422 0.131717 0.066635 0.094453 0.111386 0.122206 0.128330 0.064921 0.091944 0.108365 0.118856 0.124799 0.063142 0.089331 0.105213 0.115357 0.121110 0.061289 0.086603 0.101917 0.111694 0.117246 0.059354 0.083744 0.098456 0.107845 0.113186 0.057324 0.080734 0.094807 0.103785 0.108901 0.055184 0.077550 0.090941 0.099481 0.104360 0.052913 0.074159 0.086820 0.094893 0.099517 0.050485 0.070519 0.082393 0.089965 0.094319 0.047860 0.066571 0.077592 0.084624 0.088687 0.044982 0.062231 0.072322 0.078769 0.082518 0.041765 0.057377 0.066444 0.072251 0.075659 0.038067 0.051814 0.059742 0.064841 0.067872 0.033631 0.045206 0.051850 0.056153 0.058755 0.027917 0.036891 0.042047 0.045423 0.047511 0.019471 0.025148 0.028452 0.030647 0.032046 