Variables="X","Y","Z","GAMMA"
ZONE T="WING" i=6,j=51,k=1, ZONETYPE=Ordered
DATAPACKING=BLOCK
VARLOCATION=([4]=CELLCENTERED)
0.000000 0.200000 0.400000 0.600000 0.800000 1.000000 0.000000 0.200000 0.400000 0.600000 0.800000 1.000000 0.000000 0.200000 0.400000 0.600000 0.800000 1.000000 0.000000 0.200000 0.400000 0.600000 0.800000 1.000000 0.000000 0.200000 0.400000 0.600000 0.800000 1.000000 0.000000 0.200000 0.400000 0.600000 0.800000 1.000000 0.000000 0.200000 0.400000 0.600000 0.800000 1.000000 0.000000 0.200000 0.400000 0.600000 0.800000 1.000000 0.000000 0.200000 0.400000 0.600000 0.800000 1.000000 0.000000 0.200000 0.400000 0.600000 0.800000 1.000000 0.000000 0.200000 0.400000 0.600000 0.800000 1.000000 0.000000 0.200000 0.400000 0.600000 0.800000 1.000000 0.000000 0.200000 0.400000 0.600000 0.800000 1.000000 0.000000 0.200000 0.400000 0.600000 0.800000 1.000000 0.000000 0.200000 0.400000 0.600000 0.800000 1.000000 0.000000 0.200000 0.400000 0.600000 0.800000 1.000000 0.000000 0.200000 0.400000 0.600000 0.800000 1.000000 0.000000 0.200000 0.400000 0.600000 0.800000 1.000000 0.000000 0.200000 0.400000 0.600000 0.800000 1.000000 0.000000 0.200000 0.400000 0.600000 0.800000 1.000000 0.000000 0.200000 0.400000 0.600000 0.800000 1.000000 0.000000 0.200000 0.400000 0.600000 0.800000 1.000000 0.000000 0.200000 0.400000 0.600000 0.800000 1.000000 0.000000 0.200000 0.400000 0.600000 0.800000 1.000000 0.000000 0.200000 0.400000 0.600000 0.800000 1.000000 0.000000 0.200000 0.400000 0.600000 0.800000 1.000000 0.000000 0.200000 0.400000 0.600000 0.800000 1.000000 0.000000 0.200000 0.400000 0.600000 0.800000 1.000000 0.000000 0.200000 0.400000 0.600000 0.800000 1.000000 0.000000 0.200000 0.400000 0.600000 0.800000 1.000000 0.000000 0.200000 0.400000 0.600000 0.800000 1.000000 0.000000 0.200000 0.400000 0.600000 0.800000 1.000000 0.000000 0.200000 0.400000 0.600000 0.800000 1.000000 0.000000 0.200000 0.400000 0.600000 0.800000 1.000000 0.000000 0.200000 0.400000 0.600000 0.800000 1.000000 0.000000 0.200000 0.400000 0.600000 0.800000 1.000000 0.000000 0.200000 0.400000 0.600000 0.800000 1.000000 0.000000 0.200000 0.400000 0.600000 0.800000 1.000000 0.000000 0.200000 0.400000 0.600000 0.800000 1.000000 0.000000 0.200000 0.400000 0.600000 0.800000 1.000000 0.000000 0.200000 0.400000 0.600000 0.800000 1.000000 0.000000 0.200000 0.400000 0.600000 0.800000 1.000000 0.000000 0.200000 0.400000 0.600000 0.800000 1.000000 0.000000 0.200000 0.400000 0.600000 0.800000 1.000000 0.000000 0.200000 0.400000 0.600000 0.800000 1.000000 0.000000 0.200000 0.400000 0.600000 0.800000 1.000000 0.000000 0.200000 0.400000 0.600000 0.800000 1.000000 0.000000 0.200000 0.400000 0.600000 0.800000 1.000000 0.000000 0.200000 0.400000 0.600000 0.800000 1.000000 0.000000 0.200000 0.400000 0.600000 0.800000 1.000000 0.000000 0.200000 0.400000 0.600000 0.800000 1.000000
0.000000 0.000000 0.000000 0.000000 0.000000 0.000000 100000000.000000 100000000.000000 100000000.000000 100000000.000000 100000000.000000 100000000.000000 200000000.000000 200000000.000000 200000000.000000 200000000.000000 200000000.000000 200000000.000000 300000000.000000 300000000.000000 300000000.000000 300000000.000000 300000000.000000 300000000.000000 400000000.000000 400000000.000000 400000000.000000 400000000.000000 400000000.000000 400000000.000000 500000000.000000 500000000.000000 500000000.000000 500000000.000000 500000000.000000 500000000.000000 600000000.000000 600000000.000000 600000000.000000 600000000.000000 600000000.000000 600000000.000000 700000000.000000 700000000.000000 700000000.000000 700000000.000000 700000000.000000 700000000.000000 800000000.000000 800000000.000000 800000000.000000 800000000.000000 800000000.000000 800000000.000000 900000000.000000 900000000.000000 900000000.000000 900000000.000000 900000000.000000 900000000.000000 1000000000.000000 1000000000.000000 1000000000.000000 1000000000.000000 1000000000.000000 1000000000.000000 1100000000.000000 1100000000.000000 1100000000.000000 1100000000.000000 1100000000.000000 1100000000.000000 1200000000.000000 1200000000.000000 1200000000.000000 1200000000.000000 1200000000.000000 1200000000.000000 1300000000.000000 1300000000.000000 1300000000.000000 1300000000.000000 1300000000.000000 1300000000.000000 1400000000.000000 1400000000.000000 1400000000.000000 1400000000.000000 1400000000.000000 1400000000.000000 1500000000.000000 1500000000.000000 1500000000.000000 1500000000.000000 1500000000.000000 1500000000.000000 1600000000.000000 1600000000.000000 1600000000.000000 1600000000.000000 1600000000.000000 1600000000.000000 1700000000.000000 1700000000.000000 1700000000.000000 1700000000.000000 1700000000.000000 1700000000.000000 1800000000.000000 1800000000.000000 1800000000.000000 1800000000.000000 1800000000.000000 1800000000.000000 1900000000.000000 1900000000.000000 1900000000.000000 1900000000.000000 1900000000.000000 1900000000.000000 2000000000.000000 2000000000.000000 2000000000.000000 2000000000.000000 2000000000.000000 2000000000.000000 2100000000.000000 2100000000.000000 2100000000.000000 2100000000.000000 2100000000.000000 2100000000.000000 2200000000.000000 2200000000.000000 2200000000.000000 2200000000.000000 2200000000.000000 2200000000.000000 2300000000.000000 2300000000.000000 2300000000.000000 2300000000.000000 2300000000.000000 2300000000.000000 2400000000.000000 2400000000.000000 2400000000.000000 2400000000.000000 2400000000.000000 2400000000.000000 2500000000.000000 2500000000.000000 2500000000.000000 2500000000.000000 2500000000.000000 2500000000.000000 2600000000.000000 2600000000.000000 2600000000.000000 2600000000.000000 2600000000.000000 2600000000.000000 2700000000.000000 2700000000.000000 2700000000.000000 2700000000.000000 2700000000.000000 2700000000.000000 2800000000.000000 2800000000.000000 2800000000.000000 2800000000.000000 2800000000.000000 2800000000.000000 2900000000.000000 2900000000.000000 2900000000.000000 2900000000.000000 2900000000.000000 2900000000.000000 3000000000.000000 3000000000.000000 3000000000.000000 3000000000.000000 3000000000.000000 3000000000.000000 3100000000.000000 3100000000.000000 3100000000.000000 3100000000.000000 3100000000.000000 3100000000.000000 3200000000.000000 3200000000.000000 3200000000.000000 3200000000.000000 3200000000.000000 3200000000.000000 3300000000.000000 3300000000.000000 3300000000.000000 3300000000.000000 3300000000.000000 3300000000.000000 3400000000.000000 3400000000.000000 3400000000.000000 3400000000.000000 3400000000.000000 3400000000.000000 3500000000.000000 3500000000.000000 3500000000.000000 3500000000.000000 3500000000.000000 3500000000.000000 3600000000.000000 3600000000.000000 3600000000.000000 3600000000.000000 3600000000.000000 3600000000.000000 3700000000.000000 3700000000.000000 3700000000.000000 3700000000.000000 3700000000.000000 3700000000.000000 3800000000.000000 3800000000.000000 3800000000.000000 3800000000.000000 3800000000.000000 3800000000.000000 3900000000.000000 3900000000.000000 3900000000.000000 3900000000.000000 3900000000.000000 3900000000.000000 4000000000.000000 4000000000.000000 4000000000.000000 4000000000.000000 4000000000.000000 4000000000.000000 4100000000.000000 4100000000.000000 4100000000.000000 4100000000.000000 4100000000.000000 4100000000.000000 4200000000.000000 4200000000.000000 4200000000.000000 4200000000.000000 4200000000.000000 4200000000.000000 4300000000.000000 4300000000.000000 4300000000.000000 4300000000.000000 4300000000.000000 4300000000.000000 4400000000.000000 4400000000.000000 4400000000.000000 4400000000.000000 4400000000.000000 4400000000.000000 4500000000.000000 4500000000.000000 4500000000.000000 4500000000.000000 4500000000.000000 4500000000.000000 4600000000.000000 4600000000.000000 4600000000.000000 4600000000.000000 4600000000.000000 4600000000.000000 4700000000.000000 4700000000.000000 4700000000.000000 4700000000.000000 4700000000.000000 4700000000.000000 4800000000.000000 4800000000.000000 4800000000.000000 4800000000.000000 4800000000.000000 4800000000.000000 4900000000.000000 4900000000.000000 4900000000.000000 4900000000.000000 4900000000.000000 4900000000.000000 5000000000.000000 5000000000.000000 5000000000.000000 5000000000.000000 5000000000.000000 5000000000.000000
0.000000 0.000000 0.000000 0.000000 0.000000 0.000000 0.000000 0.000000 0.000000 0.000000 0.000000 0.000000 0.000000 0.000000 0.000000 0.000000 0.000000 0.000000 0.000000 0.000000 0.000000 0.000000 0.000000 0.000000 0.000000 0.000000 0.000000 0.000000 0.000000 0.000000 0.000000 0.000000 0.000000 0.000000 0.000000 0.000000 0.000000 0.000000 0.000000 0.000000 0.000000 0.000000 0.000000 0.000000 0.000000 0.000000 0.000000 0.000000 0.000000 0.000000 0.000000 0.000000 0.000000 0.000000 0.000000 0.000000 0.000000 0.000000 0.000000 0.000000 0.000000 0.000000 0.000000 0.000000 0.000000 0.000000 0.000000 0.000000 0.000000 0.000000 0.000000 0.000000 0.000000 0.000000 0.000000 0.000000 0.000000 0.000000 0.000000 0.000000 0.000000 0.000000 0.000000 0.000000 0.000000 0.000000 0.000000 0.000000 0.000000 0.000000 0.000000 0.000000 0.000000 0.000000 0.000000 0.000000 0.000000 0.000000 0.000000 0.000000 0.000000 0.000000 0.000000 0.000000 0.000000 0.000000 0.000000 0.000000 0.000000 0.000000 0.000000 0.000000 0.000000 0.000000 0.000000 0.000000 0.000000 0.000000 0.000000 0.000000 0.000000 0.000000 0.000000 0.000000 0.000000 0.000000 0.000000 0.000000 0.000000 0.000000 0.000000 0.000000 0.000000 0.000000 0.000000 0.000000 0.000000 0.000000 0.000000 0.000000 0.000000 0.000000 0.000000 0.000000 0.000000 0.000000 0.000000 0.000000 0.000000 0.000000 0.000000 0.000000 0.000000 0.000000 0.000000 0.000000 0.000000 0.000000 0.000000 0.000000 0.000000 0.000000 0.000000 0.000000 0.000000 0.000000 0.000000 0.000000 0.000000 0.000000 0.000000 0.000000 0.000000 0.000000 0.000000 0.000000 0.000000 0.000000 0.000000 0.000000 0.000000 0.000000 0.000000 0.000000 0.000000 0.000000 0.000000 0.000000 0.000000 0.000000 0.000000 0.000000 0.000000 0.000000 0.000000 0.000000 0.000000 0.000000 0.000000 0.000000 0.000000 0.000000 0.000000 0.000000 0.000000 0.000000 0.000000 0.000000 0.000000 0.000000 0.000000 0.000000 0.000000 0.000000 0.000000 0.000000 0.000000 0.000000 0.000000 0.000000 0.000000 0.000000 0.000000 0.000000 0.000000 0.000000 0.000000 0.000000 0.000000 0.000000 0.000000 0.000000 0.000000 0.000000 0.000000 0.000000 0.000000 0.000000 0.000000 0.000000 0.000000 0.000000 0.000000 0.000000 0.000000 0.000000 0.000000 0.000000 0.000000 0.000000 0.000000 0.000000 0.000000 0.000000 0.000000 0.000000 0.000000 0.000000 0.000000 0.000000 0.000000 0.000000 0.000000 0.000000 0.000000 0.000000 0.000000 0.000000 0.000000 0.000000 0.000000 0.000000 0.000000 0.000000 0.000000 0.000000 0.000000 0.000000 0.000000 0.000000 0.000000 0.000000 0.000000 0.000000 0.000000 0.000000 0.000000 0.000000 0.000000 0.000000 0.000000 0.000000 0.000000 0.000000 0.000000 0.000000 0.000000 0.000000 0.000000 0.000000 0.000000 0.000000 0.000000 0.000000 0.000000 0.000000
0.267195 0.385947 0.462286 0.513179 0.542866 0.267195 0.385947 0.462286 0.513179 0.542866 0.267195 0.385947 0.462286 0.513179 0.542866 0.267195 0.385947 0.462286 0.513179 0.542866 0.267195 0.385947 0.462286 0.513179 0.542866 0.267195 0.385947 0.462286 0.513179 0.542866 0.267195 0.385947 0.462286 0.513179 0.542866 0.267195 0.385947 0.462286 0.513179 0.542866 0.267195 0.385947 0.462286 0.513179 0.542866 0.267195 0.385947 0.462286 0.513179 0.542866 0.267195 0.385947 0.462286 0.513179 0.542866 0.267195 0.385947 0.462286 0.513179 0.542866 0.267195 0.385947 0.462286 0.513179 0.542866 0.267195 0.385947 0.462286 0.513179 0.542866 0.267195 0.385947 0.462286 0.513179 0.542866 0.267195 0.385947 0.462286 0.513179 0.542866 0.267195 0.385947 0.462286 0.513179 0.542866 0.267195 0.385947 0.462286 0.513179 0.542866 0.267195 0.385947 0.462286 0.513179 0.542866 0.267195 0.385947 0.462286 0.513179 0.542866 0.267195 0.385947 0.462286 0.513179 0.542866 0.267195 0.385947 0.462286 0.513179 0.542866 0.267195 0.385947 0.462286 0.513179 0.542866 0.267195 0.385947 0.462286 0.513179 0.542866 0.267195 0.385947 0.462286 0.513179 0.542866 0.267195 0.385947 0.462286 0.513179 0.542866 0.267195 0.385947 0.462286 0.513179 0.542866 0.267195 0.385947 0.462286 0.513179 0.542866 0.267195 0.385947 0.462286 0.513179 0.542866 0.267195 0.385947 0.462286 0.513179 0.542866 0.267195 0.385947 0.462286 0.513179 0.542866 0.267195 0.385947 0.462286 0.513179 0.542866 0.267195 0.385947 0.462286 0.513179 0.542866 0.267195 0.385947 0.462286 0.513179 0.542866 0.267195 0.385947 0.462286 0.513179 0.542866 0.267195 0.385947 0.462286 0.513179 0.542866 0.267195 0.385947 0.462286 0.513179 0.542866 0.267195 0.385947 0.462286 0.513179 0.542866 0.267195 0.385947 0.462286 0.513179 0.542866 0.267195 0.385947 0.462286 0.513179 0.542866 0.267195 0.385947 0.462286 0.513179 0.542866 0.267195 0.385947 0.462286 0.513179 0.542866 0.267195 0.385947 0.462286 0.513179 0.542866 0.267195 0.385947 0.462286 0.513179 0.542866 0.267195 0.385947 0.462286 0.513179 0.542866 0.267195 0.385947 0.462286 0.513179 0.542866 0.267195 0.385947 0.462286 0.513179 0.542866 0.267195 0.385947 0.462286 0.513179 0.542866 0.267195 0.385947 0.462286 0.513179 0.542866 0.267195 0.385947 0.462286 0.513179 0.542866 