Variables="X","Y","Z","GAMMA"
ZONE T="WING" i=6,j=51,k=1, ZONETYPE=Ordered
DATAPACKING=BLOCK
VARLOCATION=([4]=CELLCENTERED)
-0.000000 0.200000 0.400000 0.600000 0.800000 1.000000 0.219941 0.416171 0.612402 0.808633 1.004863 1.201094 0.439664 0.632129 0.824594 1.017059 1.209525 1.401990 0.658954 0.847661 1.036368 1.225075 1.413782 1.602489 0.877593 1.062553 1.247513 1.432473 1.617433 1.802393 1.095366 1.276594 1.457822 1.639050 1.820277 2.001505 1.312058 1.489572 1.667087 1.844601 2.022115 2.199629 1.527455 1.701278 1.875101 2.048924 2.222747 2.396569 1.741345 1.911503 2.081660 2.251817 2.421974 2.592131 1.953517 2.120038 2.286559 2.453080 2.619601 2.786122 2.163760 2.326678 2.489596 2.652514 2.815432 2.978350 2.371868 2.531220 2.690571 2.849923 3.009274 3.168626 2.577636 2.733461 2.889286 3.045111 3.200936 3.356761 2.780859 2.933202 3.085544 3.237886 3.390228 3.542571 2.981339 3.130245 3.279152 3.428058 3.576965 3.725871 3.178876 3.324397 3.469918 3.615439 3.760960 3.906481 3.373276 3.515465 3.657655 3.799844 3.942034 4.084223 3.564346 3.703261 3.842176 3.981091 4.120006 4.258922 3.751900 3.887600 4.023301 4.159002 4.294703 4.430404 3.935750 4.068300 4.200850 4.333400 4.465950 4.598500 4.115717 4.245182 4.374648 4.504114 4.633580 4.763045 4.291621 4.418073 4.544524 4.670975 4.797426 4.923877 4.463291 4.586800 4.710309 4.833818 4.957327 5.080836 4.630556 4.751198 4.871841 4.992483 5.113126 5.233768 4.793250 4.911105 5.028959 5.146813 5.264668 5.382522 4.951215 5.066362 5.181509 5.296657 5.411804 5.526951 5.104293 5.216817 5.329341 5.441865 5.554388 5.666912 5.252334 5.362321 5.472308 5.582294 5.692281 5.802268 5.395192 5.502730 5.610269 5.717807 5.825345 5.932884 5.532725 5.637906 5.743088 5.848269 5.953451 6.058632 5.664798 5.767716 5.870634 5.973552 6.076470 6.179388 5.791281 5.892031 5.992781 6.093532 6.194282 6.295032 5.912048 6.010728 6.109409 6.208090 6.306770 6.405451 6.026981 6.123692 6.220402 6.317113 6.413824 6.510535 6.135965 6.230809 6.325652 6.420495 6.515338 6.610181 6.238895 6.331974 6.425053 6.518132 6.611212 6.704291 6.335667 6.427088 6.518509 6.609929 6.701350 6.792771 6.426187 6.516057 6.605926 6.695795 6.785665 6.875534 6.510365 6.598792 6.687219 6.775646 6.864072 6.952499 6.588118 6.675212 6.762307 6.849401 6.936495 7.023590 6.659369 6.745243 6.831116 6.916989 7.002862 7.088736 6.724049 6.808814 6.893578 6.978343 7.063108 7.147873 6.782092 6.865862 6.949632 7.033402 7.117172 7.200942 6.833443 6.916333 6.999223 7.082113 7.165003 7.247893 6.878049 6.960175 7.042300 7.124426 7.206551 7.288677 6.915868 6.997346 7.078823 7.160300 7.241778 7.323255 6.946862 7.027808 7.108754 7.189701 7.270647 7.351593 6.971000 7.051532 7.132065 7.212598 7.293130 7.373663 6.988258 7.068495 7.148732 7.228969 7.309206 7.389442 6.998620 7.078679 7.158739 7.238798 7.318857 7.398916 7.002075 7.082075 7.162075 7.242075 7.322075 7.402075
-0.000000 -0.000000 -0.000000 -0.000000 -0.000000 -0.000000 0.314108 0.314108 0.314108 0.314108 0.314108 0.314108 0.627905 0.627905 0.627905 0.627905 0.627905 0.627905 0.941083 0.941083 0.941083 0.941083 0.941083 0.941083 1.253332 1.253332 1.253332 1.253332 1.253332 1.253332 1.564345 1.564345 1.564345 1.564345 1.564345 1.564345 1.873813 1.873813 1.873813 1.873813 1.873813 1.873813 2.181432 2.181432 2.181432 2.181432 2.181432 2.181432 2.486899 2.486899 2.486899 2.486899 2.486899 2.486899 2.789911 2.789911 2.789911 2.789911 2.789911 2.789911 3.090170 3.090170 3.090170 3.090170 3.090170 3.090170 3.387379 3.387379 3.387379 3.387379 3.387379 3.387379 3.681246 3.681246 3.681246 3.681246 3.681246 3.681246 3.971479 3.971479 3.971479 3.971479 3.971479 3.971479 4.257793 4.257793 4.257793 4.257793 4.257793 4.257793 4.539905 4.539905 4.539905 4.539905 4.539905 4.539905 4.817537 4.817537 4.817537 4.817537 4.817537 4.817537 5.090414 5.090414 5.090414 5.090414 5.090414 5.090414 5.358268 5.358268 5.358268 5.358268 5.358268 5.358268 5.620834 5.620834 5.620834 5.620834 5.620834 5.620834 5.877853 5.877853 5.877853 5.877853 5.877853 5.877853 6.129071 6.129071 6.129071 6.129071 6.129071 6.129071 6.374240 6.374240 6.374240 6.374240 6.374240 6.374240 6.613119 6.613119 6.613119 6.613119 6.613119 6.613119 6.845471 6.845471 6.845471 6.845471 6.845471 6.845471 7.071068 7.071068 7.071068 7.071068 7.071068 7.071068 7.289686 7.289686 7.289686 7.289686 7.289686 7.289686 7.501111 7.501111 7.501111 7.501111 7.501111 7.501111 7.705132 7.705132 7.705132 7.705132 7.705132 7.705132 7.901550 7.901550 7.901550 7.901550 7.901550 7.901550 8.090170 8.090170 8.090170 8.090170 8.090170 8.090170 8.270806 8.270806 8.270806 8.270806 8.270806 8.270806 8.443279 8.443279 8.443279 8.443279 8.443279 8.443279 8.607420 8.607420 8.607420 8.607420 8.607420 8.607420 8.763067 8.763067 8.763067 8.763067 8.763067 8.763067 8.910065 8.910065 8.910065 8.910065 8.910065 8.910065 9.048271 9.048271 9.048271 9.048271 9.048271 9.048271 9.177546 9.177546 9.177546 9.177546 9.177546 9.177546 9.297765 9.297765 9.297765 9.297765 9.297765 9.297765 9.408808 9.408808 9.408808 9.408808 9.408808 9.408808 9.510565 9.510565 9.510565 9.510565 9.510565 9.510565 9.602937 9.602937 9.602937 9.602937 9.602937 9.602937 9.685832 9.685832 9.685832 9.685832 9.685832 9.685832 9.759168 9.759168 9.759168 9.759168 9.759168 9.759168 9.822873 9.822873 9.822873 9.822873 9.822873 9.822873 9.876883 9.876883 9.876883 9.876883 9.876883 9.876883 9.921147 9.921147 9.921147 9.921147 9.921147 9.921147 9.955620 9.955620 9.955620 9.955620 9.955620 9.955620 9.980267 9.980267 9.980267 9.980267 9.980267 9.980267 9.995066 9.995066 9.995066 9.995066 9.995066 9.995066 10.000000 10.000000 10.000000 10.000000 10.000000 10.000000
0.000000 0.000000 0.000000 0.000000 0.000000 0.000000 0.000000 0.000000 0.000000 0.000000 0.000000 0.000000 0.000000 0.000000 0.000000 0.000000 0.000000 0.000000 0.000000 0.000000 0.000000 0.000000 0.000000 0.000000 0.000000 0.000000 0.000000 0.000000 0.000000 0.000000 0.000000 0.000000 0.000000 0.000000 0.000000 0.000000 0.000000 0.000000 0.000000 0.000000 0.000000 0.000000 0.000000 0.000000 0.000000 0.000000 0.000000 0.000000 0.000000 0.000000 0.000000 0.000000 0.000000 0.000000 0.000000 0.000000 0.000000 0.000000 0.000000 0.000000 0.000000 0.000000 0.000000 0.000000 0.000000 0.000000 0.000000 0.000000 0.000000 0.000000 0.000000 0.000000 0.000000 0.000000 0.000000 0.000000 0.000000 0.000000 0.000000 0.000000 0.000000 0.000000 0.000000 0.000000 0.000000 0.000000 0.000000 0.000000 0.000000 0.000000 0.000000 0.000000 0.000000 0.000000 0.000000 0.000000 0.000000 0.000000 0.000000 0.000000 0.000000 0.000000 0.000000 0.000000 0.000000 0.000000 0.000000 0.000000 0.000000 0.000000 0.000000 0.000000 0.000000 0.000000 0.000000 0.000000 0.000000 0.000000 0.000000 0.000000 0.000000 0.000000 0.000000 0.000000 0.000000 0.000000 0.000000 0.000000 0.000000 0.000000 0.000000 0.000000 0.000000 0.000000 0.000000 0.000000 0.000000 0.000000 0.000000 0.000000 0.000000 0.000000 0.000000 0.000000 0.000000 0.000000 0.000000 0.000000 0.000000 0.000000 0.000000 0.000000 0.000000 0.000000 0.000000 0.000000 0.000000 0.000000 0.000000 0.000000 0.000000 0.000000 0.000000 0.000000 0.000000 0.000000 0.000000 0.000000 0.000000 0.000000 0.000000 0.000000 0.000000 0.000000 0.000000 0.000000 0.000000 0.000000 0.000000 0.000000 0.000000 0.000000 0.000000 0.000000 0.000000 0.000000 0.000000 0.000000 0.000000 0.000000 0.000000 0.000000 0.000000 0.000000 0.000000 0.000000 0.000000 0.000000 0.000000 0.000000 0.000000 0.000000 0.000000 0.000000 0.000000 0.000000 0.000000 0.000000 0.000000 0.000000 0.000000 0.000000 0.000000 0.000000 0.000000 0.000000 0.000000 0.000000 0.000000 0.000000 0.000000 0.000000 0.000000 0.000000 0.000000 0.000000 0.000000 0.000000 0.000000 0.000000 0.000000 0.000000 0.000000 0.000000 0.000000 0.000000 0.000000 0.000000 0.000000 0.000000 0.000000 0.000000 0.000000 0.000000 0.000000 0.000000 0.000000 0.000000 0.000000 0.000000 0.000000 0.000000 0.000000 0.000000 0.000000 0.000000 0.000000 0.000000 0.000000 0.000000 0.000000 0.000000 0.000000 0.000000 0.000000 0.000000 0.000000 0.000000 0.000000 0.000000 0.000000 0.000000 0.000000 0.000000 0.000000 0.000000 0.000000 0.000000 0.000000 0.000000 0.000000 0.000000 0.000000 0.000000 0.000000 0.000000 0.000000 0.000000 0.000000 0.000000 0.000000 0.000000 0.000000 0.000000 0.000000 0.000000 0.000000 0.000000 0.000000 0.000000 0.000000 0.000000 0.000000 0.000000 0.000000 0.000000
0.089915 0.134606 0.166317 0.189218 0.203438 0.099627 0.145554 0.176261 0.197406 0.210024 0.103732 0.150568 0.181204 0.201945 0.214199 0.105543 0.152850 0.183546 0.204193 0.216338 0.106192 0.153650 0.184340 0.204921 0.216996 0.106148 0.153523 0.184106 0.204583 0.216579 0.105641 0.152758 0.183145 0.203470 0.215366 0.104805 0.151531 0.181648 0.201780 0.213555 0.103725 0.149959 0.179747 0.199650 0.211287 0.102461 0.148125 0.177537 0.197183 0.208665 0.101055 0.146088 0.175089 0.194454 0.205770 0.099540 0.143896 0.172456 0.191523 0.202663 0.097942 0.141585 0.169681 0.188437 0.199393 0.096282 0.139182 0.166798 0.185232 0.195998 0.094574 0.136713 0.163836 0.181939 0.192511 0.092833 0.134196 0.160818 0.178584 0.188959 0.091071 0.131647 0.157762 0.175189 0.185364 0.089296 0.129081 0.154685 0.171770 0.181745 0.087518 0.126510 0.151602 0.168344 0.178119 0.085742 0.123943 0.148524 0.164925 0.174499 0.083977 0.121389 0.145463 0.161523 0.170899 0.082226 0.118858 0.142427 0.158150 0.167328 0.080496 0.116354 0.139425 0.154815 0.163797 0.078789 0.113886 0.136465 0.151525 0.160315 0.077110 0.111457 0.133551 0.148287 0.156886 0.075462 0.109072 0.130690 0.145107 0.153519 0.073847 0.106735 0.127886 0.141990 0.150218 0.072269 0.104448 0.125142 0.138938 0.146985 0.070727 0.102215 0.122460 0.135955 0.143824 0.069223 0.100035 0.119841 0.133040 0.140735 0.067758 0.097910 0.117285 0.130193 0.137716 0.066330 0.095836 0.114789 0.127410 0.134762 0.064937 0.093810 0.112346 0.124683 0.131865 0.063576 0.091826 0.109949 0.122001 0.129011 0.062241 0.089874 0.107584 0.119347 0.126180 0.060924 0.087939 0.105229 0.116693 0.123340 0.059613 0.086002 0.102854 0.114001 0.120446 0.058292 0.084030 0.100416 0.111213 0.117430 0.056937 0.081983 0.097852 0.108248 0.114193 0.055518 0.079802 0.095074 0.104986 0.110594 0.053994 0.077406 0.091956 0.101262 0.106439 0.052310 0.074683 0.088327 0.096851 0.101473 0.050392 0.071478 0.083948 0.091469 0.095405 0.048140 0.067566 0.078515 0.084807 0.087968 0.045400 0.062632 0.071686 0.076623 0.079015 0.041921 0.056265 0.063203 0.066847 0.068573 0.037274 0.048115 0.053057 0.055625 0.056829 0.030852 0.038187 0.041518 0.043260 0.044073 0.022400 0.026958 0.029074 0.030191 0.030712 0.013204 0.015741 0.016932 0.017562 0.017856 