Variables="X","Y","Z","GAMMA"
ZONE T="WING" i=6,j=51,k=1, ZONETYPE=Ordered
DATAPACKING=BLOCK
VARLOCATION=([4]=CELLCENTERED)
0.000000 0.200000 0.400000 0.600000 0.800000 1.000000 0.002887 0.202887 0.402887 0.602887 0.802887 1.002887 0.005774 0.205774 0.405774 0.605774 0.805774 1.005774 0.008660 0.208660 0.408660 0.608660 0.808660 1.008660 0.011547 0.211547 0.411547 0.611547 0.811547 1.011547 0.014434 0.214434 0.414434 0.614434 0.814434 1.014434 0.017321 0.217321 0.417321 0.617321 0.817321 1.017321 0.020207 0.220207 0.420207 0.620207 0.820207 1.020207 0.023094 0.223094 0.423094 0.623094 0.823094 1.023094 0.025981 0.225981 0.425981 0.625981 0.825981 1.025981 0.028868 0.228868 0.428868 0.628868 0.828868 1.028868 0.031754 0.231754 0.431754 0.631754 0.831754 1.031754 0.034641 0.234641 0.434641 0.634641 0.834641 1.034641 0.037528 0.237528 0.437528 0.637528 0.837528 1.037528 0.040415 0.240415 0.440415 0.640415 0.840415 1.040415 0.043301 0.243301 0.443301 0.643301 0.843301 1.043301 0.046188 0.246188 0.446188 0.646188 0.846188 1.046188 0.049075 0.249075 0.449075 0.649075 0.849075 1.049075 0.051962 0.251962 0.451962 0.651962 0.851962 1.051962 0.054848 0.254848 0.454848 0.654848 0.854848 1.054848 0.057735 0.257735 0.457735 0.657735 0.857735 1.057735 0.060622 0.260622 0.460622 0.660622 0.860622 1.060622 0.063509 0.263509 0.463509 0.663509 0.863509 1.063509 0.066395 0.266395 0.466395 0.666395 0.866395 1.066395 0.069282 0.269282 0.469282 0.669282 0.869282 1.069282 0.072169 0.272169 0.472169 0.672169 0.872169 1.072169 0.075056 0.275056 0.475056 0.675056 0.875056 1.075056 0.077942 0.277942 0.477942 0.677942 0.877942 1.077942 0.080829 0.280829 0.480829 0.680829 0.880829 1.080829 0.083716 0.283716 0.483716 0.683716 0.883716 1.083716 0.086603 0.286603 0.486603 0.686603 0.886603 1.086603 0.089489 0.289489 0.489489 0.689489 0.889489 1.089489 0.092376 0.292376 0.492376 0.692376 0.892376 1.092376 0.095263 0.295263 0.495263 0.695263 0.895263 1.095263 0.098150 0.298150 0.498150 0.698150 0.898150 1.098150 0.101036 0.301036 0.501036 0.701036 0.901036 1.101036 0.103923 0.303923 0.503923 0.703923 0.903923 1.103923 0.106810 0.306810 0.506810 0.706810 0.906810 1.106810 0.109697 0.309697 0.509697 0.709697 0.909697 1.109697 0.112583 0.312583 0.512583 0.712583 0.912583 1.112583 0.115470 0.315470 0.515470 0.715470 0.915470 1.115470 0.118357 0.318357 0.518357 0.718357 0.918357 1.118357 0.121244 0.321244 0.521244 0.721244 0.921244 1.121244 0.124130 0.324130 0.524130 0.724130 0.924130 1.124130 0.127017 0.327017 0.527017 0.727017 0.927017 1.127017 0.129904 0.329904 0.529904 0.729904 0.929904 1.129904 0.132791 0.332791 0.532791 0.732791 0.932791 1.132791 0.135677 0.335677 0.535677 0.735677 0.935677 1.135677 0.138564 0.338564 0.538564 0.738564 0.938564 1.138564 0.141451 0.341451 0.541451 0.741451 0.941451 1.141451 0.144338 0.344338 0.544338 0.744338 0.944338 1.144338
0.000000 0.000000 0.000000 0.000000 0.000000 0.000000 0.005000 0.005000 0.005000 0.005000 0.005000 0.005000 0.010000 0.010000 0.010000 0.010000 0.010000 0.010000 0.015000 0.015000 0.015000 0.015000 0.015000 0.015000 0.020000 0.020000 0.020000 0.020000 0.020000 0.020000 0.025000 0.025000 0.025000 0.025000 0.025000 0.025000 0.030000 0.030000 0.030000 0.030000 0.030000 0.030000 0.035000 0.035000 0.035000 0.035000 0.035000 0.035000 0.040000 0.040000 0.040000 0.040000 0.040000 0.040000 0.045000 0.045000 0.045000 0.045000 0.045000 0.045000 0.050000 0.050000 0.050000 0.050000 0.050000 0.050000 0.055000 0.055000 0.055000 0.055000 0.055000 0.055000 0.060000 0.060000 0.060000 0.060000 0.060000 0.060000 0.065000 0.065000 0.065000 0.065000 0.065000 0.065000 0.070000 0.070000 0.070000 0.070000 0.070000 0.070000 0.075000 0.075000 0.075000 0.075000 0.075000 0.075000 0.080000 0.080000 0.080000 0.080000 0.080000 0.080000 0.085000 0.085000 0.085000 0.085000 0.085000 0.085000 0.090000 0.090000 0.090000 0.090000 0.090000 0.090000 0.095000 0.095000 0.095000 0.095000 0.095000 0.095000 0.100000 0.100000 0.100000 0.100000 0.100000 0.100000 0.105000 0.105000 0.105000 0.105000 0.105000 0.105000 0.110000 0.110000 0.110000 0.110000 0.110000 0.110000 0.115000 0.115000 0.115000 0.115000 0.115000 0.115000 0.120000 0.120000 0.120000 0.120000 0.120000 0.120000 0.125000 0.125000 0.125000 0.125000 0.125000 0.125000 0.130000 0.130000 0.130000 0.130000 0.130000 0.130000 0.135000 0.135000 0.135000 0.135000 0.135000 0.135000 0.140000 0.140000 0.140000 0.140000 0.140000 0.140000 0.145000 0.145000 0.145000 0.145000 0.145000 0.145000 0.150000 0.150000 0.150000 0.150000 0.150000 0.150000 0.155000 0.155000 0.155000 0.155000 0.155000 0.155000 0.160000 0.160000 0.160000 0.160000 0.160000 0.160000 0.165000 0.165000 0.165000 0.165000 0.165000 0.165000 0.170000 0.170000 0.170000 0.170000 0.170000 0.170000 0.175000 0.175000 0.175000 0.175000 0.175000 0.175000 0.180000 0.180000 0.180000 0.180000 0.180000 0.180000 0.185000 0.185000 0.185000 0.185000 0.185000 0.185000 0.190000 0.190000 0.190000 0.190000 0.190000 0.190000 0.195000 0.195000 0.195000 0.195000 0.195000 0.195000 0.200000 0.200000 0.200000 0.200000 0.200000 0.200000 0.205000 0.205000 0.205000 0.205000 0.205000 0.205000 0.210000 0.210000 0.210000 0.210000 0.210000 0.210000 0.215000 0.215000 0.215000 0.215000 0.215000 0.215000 0.220000 0.220000 0.220000 0.220000 0.220000 0.220000 0.225000 0.225000 0.225000 0.225000 0.225000 0.225000 0.230000 0.230000 0.230000 0.230000 0.230000 0.230000 0.235000 0.235000 0.235000 0.235000 0.235000 0.235000 0.240000 0.240000 0.240000 0.240000 0.240000 0.240000 0.245000 0.245000 0.245000 0.245000 0.245000 0.245000 0.250000 0.250000 0.250000 0.250000 0.250000 0.250000
0.000000 0.000000 0.000000 0.000000 0.000000 0.000000 0.000000 0.000000 0.000000 0.000000 0.000000 0.000000 0.000000 0.000000 0.000000 0.000000 0.000000 0.000000 0.000000 0.000000 0.000000 0.000000 0.000000 0.000000 0.000000 0.000000 0.000000 0.000000 0.000000 0.000000 0.000000 0.000000 0.000000 0.000000 0.000000 0.000000 0.000000 0.000000 0.000000 0.000000 0.000000 0.000000 0.000000 0.000000 0.000000 0.000000 0.000000 0.000000 0.000000 0.000000 0.000000 0.000000 0.000000 0.000000 0.000000 0.000000 0.000000 0.000000 0.000000 0.000000 0.000000 0.000000 0.000000 0.000000 0.000000 0.000000 0.000000 0.000000 0.000000 0.000000 0.000000 0.000000 0.000000 0.000000 0.000000 0.000000 0.000000 0.000000 0.000000 0.000000 0.000000 0.000000 0.000000 0.000000 0.000000 0.000000 0.000000 0.000000 0.000000 0.000000 0.000000 0.000000 0.000000 0.000000 0.000000 0.000000 0.000000 0.000000 0.000000 0.000000 0.000000 0.000000 0.000000 0.000000 0.000000 0.000000 0.000000 0.000000 0.000000 0.000000 0.000000 0.000000 0.000000 0.000000 0.000000 0.000000 0.000000 0.000000 0.000000 0.000000 0.000000 0.000000 0.000000 0.000000 0.000000 0.000000 0.000000 0.000000 0.000000 0.000000 0.000000 0.000000 0.000000 0.000000 0.000000 0.000000 0.000000 0.000000 0.000000 0.000000 0.000000 0.000000 0.000000 0.000000 0.000000 0.000000 0.000000 0.000000 0.000000 0.000000 0.000000 0.000000 0.000000 0.000000 0.000000 0.000000 0.000000 0.000000 0.000000 0.000000 0.000000 0.000000 0.000000 0.000000 0.000000 0.000000 0.000000 0.000000 0.000000 0.000000 0.000000 0.000000 0.000000 0.000000 0.000000 0.000000 0.000000 0.000000 0.000000 0.000000 0.000000 0.000000 0.000000 0.000000 0.000000 0.000000 0.000000 0.000000 0.000000 0.000000 0.000000 0.000000 0.000000 0.000000 0.000000 0.000000 0.000000 0.000000 0.000000 0.000000 0.000000 0.000000 0.000000 0.000000 0.000000 0.000000 0.000000 0.000000 0.000000 0.000000 0.000000 0.000000 0.000000 0.000000 0.000000 0.000000 0.000000 0.000000 0.000000 0.000000 0.000000 0.000000 0.000000 0.000000 0.000000 0.000000 0.000000 0.000000 0.000000 0.000000 0.000000 0.000000 0.000000 0.000000 0.000000 0.000000 0.000000 0.000000 0.000000 0.000000 0.000000 0.000000 0.000000 0.000000 0.000000 0.000000 0.000000 0.000000 0.000000 0.000000 0.000000 0.000000 0.000000 0.000000 0.000000 0.000000 0.000000 0.000000 0.000000 0.000000 0.000000 0.000000 0.000000 0.000000 0.000000 0.000000 0.000000 0.000000 0.000000 0.000000 0.000000 0.000000 0.000000 0.000000 0.000000 0.000000 0.000000 0.000000 0.000000 0.000000 0.000000 0.000000 0.000000 0.000000 0.000000 0.000000 0.000000 0.000000 0.000000 0.000000 0.000000 0.000000 0.000000 0.000000 0.000000 0.000000 0.000000 0.000000 0.000000 0.000000 0.000000 0.000000 0.000000 0.000000 0.000000 0.000000
0.059427 0.076535 0.082408 0.084727 0.085718 0.059487 0.076534 0.082386 0.084698 0.085686 0.059569 0.076518 0.082338 0.084638 0.085621 0.059657 0.076484 0.082261 0.084546 0.085523 0.059744 0.076429 0.082155 0.084422 0.085391 0.059824 0.076349 0.082019 0.084265 0.085225 0.059892 0.076245 0.081851 0.084075 0.085025 0.059945 0.076113 0.081652 0.083851 0.084791 0.059982 0.075953 0.081420 0.083592 0.084521 0.059999 0.075765 0.081155 0.083300 0.084216 0.059996 0.075546 0.080856 0.082972 0.083876 0.059969 0.075296 0.080523 0.082608 0.083499 0.059919 0.075013 0.080155 0.082209 0.083086 0.059843 0.074698 0.079751 0.081772 0.082635 0.059740 0.074348 0.079311 0.081298 0.082147 0.059609 0.073963 0.078833 0.080785 0.081620 0.059449 0.073542 0.078316 0.080234 0.081053 0.059258 0.073083 0.077761 0.079642 0.080446 0.059034 0.072585 0.077165 0.079009 0.079797 0.058778 0.072048 0.076528 0.078334 0.079106 0.058486 0.071470 0.075848 0.077616 0.078372 0.058157 0.070849 0.075124 0.076854 0.077593 0.057790 0.070184 0.074355 0.076045 0.076768 0.057384 0.069473 0.073539 0.075189 0.075895 0.056935 0.068714 0.072674 0.074284 0.074973 0.056442 0.067906 0.071758 0.073328 0.073999 0.055903 0.067047 0.070790 0.072319 0.072972 0.055315 0.066133 0.069767 0.071254 0.071889 0.054676 0.065163 0.068687 0.070131 0.070748 0.053982 0.064133 0.067546 0.068948 0.069546 0.053230 0.063041 0.066341 0.067700 0.068280 0.052416 0.061882 0.065070 0.066384 0.066946 0.051536 0.060652 0.063726 0.064996 0.065539 0.050586 0.059348 0.062307 0.063532 0.064055 0.049559 0.057963 0.060806 0.061985 0.062489 0.048451 0.056491 0.059217 0.060350 0.060834 0.047253 0.054925 0.057532 0.058619 0.059082 0.045957 0.053257 0.055744 0.056782 0.057226 0.044554 0.051477 0.053841 0.054831 0.055253 0.043032 0.049572 0.051811 0.052751 0.053152 0.041377 0.047526 0.049639 0.050527 0.050906 0.039571 0.045322 0.047304 0.048139 0.048495 0.037592 0.042933 0.044781 0.045562 0.045894 0.035409 0.040329 0.042037 0.042760 0.043067 0.032981 0.037463 0.039024 0.039687 0.039969 0.030251 0.034271 0.035677 0.036275 0.036529 0.027126 0.030652 0.031890 0.032418 0.032641 0.023451 0.026434 0.027485 0.027934 0.028124 0.018920 0.021275 0.022108 0.022465 0.022616 0.012719 0.014268 0.014818 0.015054 0.015154 