Variables="X","Y","Z","GAMMA"
ZONE T="WING" i=6,j=51,k=1, ZONETYPE=Ordered
DATAPACKING=BLOCK
VARLOCATION=([4]=CELLCENTERED)
0.000000 0.200000 0.400000 0.600000 0.800000 1.000000 0.140042 0.337641 0.535241 0.732841 0.930441 1.128041 0.280083 0.475282 0.670481 0.865681 1.060880 1.256079 0.420125 0.612923 0.805721 0.998519 1.191318 1.384116 0.560166 0.750563 0.940960 1.131357 1.321754 1.512151 0.700208 0.888203 1.076198 1.264194 1.452189 1.640185 0.840249 1.025843 1.211436 1.397030 1.582623 1.768216 0.980291 1.163482 1.346673 1.529864 1.713056 1.896247 1.120332 1.301121 1.481910 1.662698 1.843487 2.024276 1.260374 1.438759 1.617145 1.795531 1.973917 2.152303 1.400415 1.576398 1.752381 1.928364 2.104346 2.280329 1.540457 1.714036 1.887616 2.061195 2.234775 2.408354 1.680498 1.851674 2.022850 2.194026 2.365202 2.536378 1.820540 1.989312 2.158084 2.326856 2.495628 2.664401 1.960581 2.126949 2.293318 2.459686 2.626054 2.792422 2.100623 2.264587 2.428551 2.592515 2.756479 2.920443 2.240664 2.402224 2.563783 2.725343 2.886903 3.048463 2.380706 2.539861 2.699016 2.858171 3.017326 3.176481 2.520747 2.677498 2.834248 2.990999 3.147749 3.304500 2.660789 2.815134 2.969480 3.123826 3.278171 3.432517 2.800830 2.952771 3.104712 3.256652 3.408593 3.560534 2.940872 3.090407 3.239943 3.389479 3.539014 3.688550 3.080913 3.228044 3.375174 3.522305 3.669435 3.816566 3.220955 3.365680 3.510405 3.655131 3.799856 3.944581 3.360996 3.503316 3.645636 3.787956 3.930276 4.072596 3.501038 3.640952 3.780867 3.920782 4.060697 4.200611 3.641079 3.778589 3.916098 4.053607 4.191117 4.328626 3.781121 3.916225 4.051329 4.186433 4.321536 4.456640 3.921162 4.053861 4.186559 4.319258 4.451956 4.584655 4.061204 4.191497 4.321790 4.452083 4.582376 4.712669 4.201245 4.329133 4.457021 4.584908 4.712796 4.840684 4.341287 4.466769 4.592251 4.717734 4.843216 4.968699 4.481328 4.604405 4.727482 4.850559 4.973636 5.096713 4.621370 4.742042 4.862713 4.983385 5.104057 5.224729 4.761411 4.879678 4.997944 5.116211 5.234478 5.352744 4.901453 5.017314 5.133176 5.249037 5.364899 5.480760 5.041494 5.154951 5.268407 5.381864 5.495320 5.608777 5.181536 5.292587 5.403639 5.514691 5.625742 5.736794 5.321577 5.430224 5.538871 5.647518 5.756165 5.864812 5.461619 5.567861 5.674103 5.780346 5.886588 5.992830 5.601660 5.705498 5.809336 5.913174 6.017012 6.120850 5.741702 5.843135 5.944569 6.046003 6.147436 6.248870 5.881743 5.980773 6.079802 6.178832 6.277861 6.376891 6.021785 6.118410 6.215036 6.311662 6.408287 6.504913 6.161826 6.256048 6.350270 6.444492 6.538714 6.632936 6.301868 6.393686 6.485505 6.577323 6.669142 6.760960 6.441909 6.531325 6.620740 6.710155 6.799570 6.888986 6.581951 6.668963 6.755975 6.842988 6.930000 7.017012 6.721992 6.806602 6.891212 6.975821 7.060431 7.145040 6.862034 6.944241 7.026448 7.108656 7.190863 7.273070 7.002075 7.081881 7.161686 7.241491 7.321296 7.401101
0.000000 0.000000 0.000000 0.000000 0.000000 0.000000 0.200000 0.200000 0.200000 0.200000 0.200000 0.200000 0.400000 0.400000 0.400000 0.400000 0.400000 0.400000 0.600000 0.600000 0.600000 0.600000 0.600000 0.600000 0.800000 0.800000 0.800000 0.800000 0.800000 0.800000 1.000000 1.000000 1.000000 1.000000 1.000000 1.000000 1.200000 1.200000 1.200000 1.200000 1.200000 1.200000 1.400000 1.400000 1.400000 1.400000 1.400000 1.400000 1.600000 1.600000 1.600000 1.600000 1.600000 1.600000 1.800000 1.800000 1.800000 1.800000 1.800000 1.800000 2.000000 2.000000 2.000000 2.000000 2.000000 2.000000 2.200000 2.200000 2.200000 2.200000 2.200000 2.200000 2.400000 2.400000 2.400000 2.400000 2.400000 2.400000 2.600000 2.600000 2.600000 2.600000 2.600000 2.600000 2.800000 2.800000 2.800000 2.800000 2.800000 2.800000 3.000000 3.000000 3.000000 3.000000 3.000000 3.000000 3.200000 3.200000 3.200000 3.200000 3.200000 3.200000 3.400000 3.400000 3.400000 3.400000 3.400000 3.400000 3.600000 3.600000 3.600000 3.600000 3.600000 3.600000 3.800000 3.800000 3.800000 3.800000 3.800000 3.800000 4.000000 4.000000 4.000000 4.000000 4.000000 4.000000 4.200000 4.200000 4.200000 4.200000 4.200000 4.200000 4.400000 4.400000 4.400000 4.400000 4.400000 4.400000 4.600000 4.600000 4.600000 4.600000 4.600000 4.600000 4.800000 4.800000 4.800000 4.800000 4.800000 4.800000 5.000000 5.000000 5.000000 5.000000 5.000000 5.000000 5.200000 5.200000 5.200000 5.200000 5.200000 5.200000 5.400000 5.400000 5.400000 5.400000 5.400000 5.400000 5.600000 5.600000 5.600000 5.600000 5.600000 5.600000 5.800000 5.800000 5.800000 5.800000 5.800000 5.800000 6.000000 6.000000 6.000000 6.000000 6.000000 6.000000 6.200000 6.200000 6.200000 6.200000 6.200000 6.200000 6.400000 6.400000 6.400000 6.400000 6.400000 6.400000 6.600000 6.600000 6.600000 6.600000 6.600000 6.600000 6.800000 6.800000 6.800000 6.800000 6.800000 6.800000 7.000000 7.000000 7.000000 7.000000 7.000000 7.000000 7.200000 7.200000 7.200000 7.200000 7.200000 7.200000 7.400000 7.400000 7.400000 7.400000 7.400000 7.400000 7.600000 7.600000 7.600000 7.600000 7.600000 7.600000 7.800000 7.800000 7.800000 7.800000 7.800000 7.800000 8.000000 8.000000 8.000000 8.000000 8.000000 8.000000 8.200000 8.200000 8.200000 8.200000 8.200000 8.200000 8.400000 8.400000 8.400000 8.400000 8.400000 8.400000 8.600000 8.600000 8.600000 8.600000 8.600000 8.600000 8.800000 8.800000 8.800000 8.800000 8.800000 8.800000 9.000000 9.000000 9.000000 9.000000 9.000000 9.000000 9.200000 9.200000 9.200000 9.200000 9.200000 9.200000 9.400000 9.400000 9.400000 9.400000 9.400000 9.400000 9.600000 9.600000 9.600000 9.600000 9.600000 9.600000 9.800000 9.800000 9.800000 9.800000 9.800000 9.800000 10.000000 10.000000 10.000000 10.000000 10.000000 10.000000
0.000000 0.000000 0.000000 0.000000 0.000000 0.000000 0.000000 0.000276 0.000552 0.000828 0.001104 0.001380 0.000000 0.000545 0.001090 0.001635 0.002180 0.002726 0.000000 0.000808 0.001615 0.002423 0.003230 0.004038 0.000000 0.001063 0.002127 0.003190 0.004254 0.005317 0.000000 0.001312 0.002625 0.003937 0.005250 0.006562 0.000000 0.001555 0.003110 0.004665 0.006219 0.007774 0.000000 0.001791 0.003581 0.005372 0.007162 0.008953 0.000000 0.002020 0.004039 0.006059 0.008078 0.010098 0.000000 0.002242 0.004484 0.006725 0.008967 0.011209 0.000000 0.002457 0.004915 0.007372 0.009829 0.012287 0.000000 0.002666 0.005332 0.007999 0.010665 0.013331 0.000000 0.002868 0.005737 0.008605 0.011473 0.014342 0.000000 0.003064 0.006128 0.009191 0.012255 0.015319 0.000000 0.003253 0.006505 0.009758 0.013010 0.016263 0.000000 0.003435 0.006869 0.010304 0.013738 0.017173 0.000000 0.003610 0.007220 0.010830 0.014440 0.018049 0.000000 0.003778 0.007557 0.011335 0.015114 0.018892 0.000000 0.003940 0.007881 0.011821 0.015762 0.019702 0.000000 0.004096 0.008191 0.012287 0.016382 0.020478 0.000000 0.004244 0.008488 0.012732 0.016976 0.021220 0.000000 0.004386 0.008772 0.013158 0.017543 0.021929 0.000000 0.004521 0.009042 0.013563 0.018084 0.022605 0.000000 0.004649 0.009299 0.013948 0.018597 0.023247 0.000000 0.004771 0.009542 0.014313 0.019084 0.023855 0.000000 0.004886 0.009772 0.014658 0.019544 0.024430 0.000000 0.004994 0.009988 0.014983 0.019977 0.024971 0.000000 0.005096 0.010191 0.015287 0.020383 0.025479 0.000000 0.005191 0.010381 0.015572 0.020762 0.025953 0.000000 0.005279 0.010557 0.015836 0.021115 0.026393 0.000000 0.005360 0.010720 0.016080 0.021440 0.026800 0.000000 0.005435 0.010870 0.016304 0.021739 0.027174 0.000000 0.005503 0.011006 0.016508 0.022011 0.027514 0.000000 0.005564 0.011128 0.016692 0.022256 0.027820 0.000000 0.005619 0.011237 0.016856 0.022475 0.028093 0.000000 0.005667 0.011333 0.017000 0.022666 0.028333 0.000000 0.005708 0.011416 0.017123 0.022831 0.028539 0.000000 0.005742 0.011484 0.017227 0.022969 0.028711 0.000000 0.005770 0.011540 0.017310 0.023080 0.028850 0.000000 0.005791 0.011582 0.017373 0.023164 0.028955 0.000000 0.005805 0.011611 0.017416 0.023222 0.029027 0.000000 0.005813 0.011626 0.017439 0.023252 0.029065 0.000000 0.005814 0.011628 0.017442 0.023256 0.029070 0.000000 0.005808 0.011617 0.017425 0.023233 0.029042 0.000000 0.005796 0.011592 0.017388 0.023183 0.028979 0.000000 0.005777 0.011553 0.017330 0.023107 0.028884 0.000000 0.005751 0.011502 0.017253 0.023004 0.028754 0.000000 0.005718 0.011437 0.017155 0.022873 0.028592 0.000000 0.005679 0.011358 0.017037 0.022716 0.028395 0.000000 0.005633 0.011266 0.016899 0.022533 0.028166 0.000000 0.005581 0.011161 0.016742 0.022322 0.027903
0.104145 0.158967 0.198742 0.227898 0.246362 0.115814 0.170986 0.208896 0.235516 0.251535 0.121563 0.177442 0.214616 0.240073 0.255181 0.124440 0.180725 0.217567 0.242496 0.257196 0.125726 0.182136 0.218762 0.243389 0.257856 0.126037 0.182350 0.218750 0.243140 0.257431 0.125704 0.181735 0.217862 0.242015 0.256141 0.124912 0.180513 0.216306 0.240202 0.254160 0.123779 0.178829 0.214230 0.237841 0.251619 0.122384 0.176782 0.211740 0.235037 0.248623 0.120780 0.174446 0.208915 0.231874 0.245255 0.119010 0.171876 0.205818 0.228416 0.241582 0.117105 0.169115 0.202497 0.224717 0.237657 0.115089 0.166198 0.198995 0.220818 0.233525 0.112984 0.163154 0.195342 0.216756 0.229222 0.110806 0.160005 0.191566 0.212560 0.224778 0.108568 0.156772 0.187691 0.208255 0.220221 0.106282 0.153470 0.183735 0.203861 0.215571 0.103958 0.150114 0.179715 0.199397 0.210849 0.101605 0.146716 0.175645 0.194879 0.206069 0.099229 0.143286 0.171537 0.190320 0.201246 0.096837 0.139833 0.167402 0.185731 0.196392 0.094434 0.136365 0.163250 0.181123 0.191519 0.092026 0.132888 0.159088 0.176505 0.186635 0.089616 0.129409 0.154923 0.171884 0.181749 0.087208 0.125934 0.150763 0.167268 0.176867 0.084805 0.122466 0.146612 0.162663 0.171998 0.082411 0.119011 0.142476 0.158074 0.167145 0.080028 0.115571 0.138359 0.153506 0.162316 0.077658 0.112151 0.134265 0.148964 0.157513 0.075304 0.108752 0.130197 0.144451 0.152741 0.072966 0.105379 0.126159 0.139971 0.148004 0.070648 0.102032 0.122153 0.135527 0.143304 0.068349 0.098714 0.118181 0.131120 0.138645 0.066071 0.095426 0.114245 0.126753 0.134027 0.063816 0.092170 0.110347 0.122428 0.129454 0.061583 0.088946 0.106487 0.118145 0.124925 0.059373 0.085755 0.102666 0.113905 0.120440 0.057186 0.082596 0.098883 0.109706 0.115999 0.055020 0.079467 0.095136 0.105546 0.111598 0.052875 0.076367 0.091421 0.101421 0.107233 0.050747 0.073290 0.087732 0.097323 0.102896 0.048630 0.070227 0.084058 0.093238 0.098569 0.046516 0.067164 0.080378 0.089141 0.094226 0.044386 0.064072 0.076655 0.084988 0.089817 0.042210 0.060899 0.072818 0.080690 0.085239 0.039919 0.057532 0.068711 0.076055 0.080273 0.037358 0.053704 0.063963 0.070612 0.074376 0.034095 0.048656 0.057493 0.063005 0.066006 0.028449 0.039343 0.045151 0.048395 0.050021 