Variables="X","Y","Z","GAMMA"
ZONE T="WING" i=6,j=51,k=1, ZONETYPE=Ordered
DATAPACKING=BLOCK
VARLOCATION=([4]=CELLCENTERED)
0.000000 0.200000 0.400000 0.600000 0.800000 1.000000 0.000000 0.200000 0.400000 0.600000 0.800000 1.000000 0.000000 0.200000 0.400000 0.600000 0.800000 1.000000 0.000000 0.200000 0.400000 0.600000 0.800000 1.000000 0.000000 0.200000 0.400000 0.600000 0.800000 1.000000 0.000000 0.200000 0.400000 0.600000 0.800000 1.000000 0.000000 0.200000 0.400000 0.600000 0.800000 1.000000 0.000000 0.200000 0.400000 0.600000 0.800000 1.000000 0.000000 0.200000 0.400000 0.600000 0.800000 1.000000 0.000000 0.200000 0.400000 0.600000 0.800000 1.000000 0.000000 0.200000 0.400000 0.600000 0.800000 1.000000 0.000000 0.200000 0.400000 0.600000 0.800000 1.000000 0.000000 0.200000 0.400000 0.600000 0.800000 1.000000 0.000000 0.200000 0.400000 0.600000 0.800000 1.000000 0.000000 0.200000 0.400000 0.600000 0.800000 1.000000 0.000000 0.200000 0.400000 0.600000 0.800000 1.000000 0.000000 0.200000 0.400000 0.600000 0.800000 1.000000 0.000000 0.200000 0.400000 0.600000 0.800000 1.000000 0.000000 0.200000 0.400000 0.600000 0.800000 1.000000 0.000000 0.200000 0.400000 0.600000 0.800000 1.000000 0.000000 0.200000 0.400000 0.600000 0.800000 1.000000 0.000000 0.200000 0.400000 0.600000 0.800000 1.000000 0.000000 0.200000 0.400000 0.600000 0.800000 1.000000 0.000000 0.200000 0.400000 0.600000 0.800000 1.000000 0.000000 0.200000 0.400000 0.600000 0.800000 1.000000 0.000000 0.200000 0.400000 0.600000 0.800000 1.000000 0.000000 0.200000 0.400000 0.600000 0.800000 1.000000 0.000000 0.200000 0.400000 0.600000 0.800000 1.000000 0.000000 0.200000 0.400000 0.600000 0.800000 1.000000 0.000000 0.200000 0.400000 0.600000 0.800000 1.000000 0.000000 0.200000 0.400000 0.600000 0.800000 1.000000 0.000000 0.200000 0.400000 0.600000 0.800000 1.000000 0.000000 0.200000 0.400000 0.600000 0.800000 1.000000 0.000000 0.200000 0.400000 0.600000 0.800000 1.000000 0.000000 0.200000 0.400000 0.600000 0.800000 1.000000 0.000000 0.200000 0.400000 0.600000 0.800000 1.000000 0.000000 0.200000 0.400000 0.600000 0.800000 1.000000 0.000000 0.200000 0.400000 0.600000 0.800000 1.000000 0.000000 0.200000 0.400000 0.600000 0.800000 1.000000 0.000000 0.200000 0.400000 0.600000 0.800000 1.000000 0.000000 0.200000 0.400000 0.600000 0.800000 1.000000 0.000000 0.200000 0.400000 0.600000 0.800000 1.000000 0.000000 0.200000 0.400000 0.600000 0.800000 1.000000 0.000000 0.200000 0.400000 0.600000 0.800000 1.000000 0.000000 0.200000 0.400000 0.600000 0.800000 1.000000 0.000000 0.200000 0.400000 0.600000 0.800000 1.000000 0.000000 0.200000 0.400000 0.600000 0.800000 1.000000 0.000000 0.200000 0.400000 0.600000 0.800000 1.000000 0.000000 0.200000 0.400000 0.600000 0.800000 1.000000 0.000000 0.200000 0.400000 0.600000 0.800000 1.000000 0.000000 0.200000 0.400000 0.600000 0.800000 1.000000
0.000000 0.000000 0.000000 0.000000 0.000000 0.000000 0.010000 0.010000 0.010000 0.010000 0.010000 0.010000 0.020000 0.020000 0.020000 0.020000 0.020000 0.020000 0.030000 0.030000 0.030000 0.030000 0.030000 0.030000 0.040000 0.040000 0.040000 0.040000 0.040000 0.040000 0.050000 0.050000 0.050000 0.050000 0.050000 0.050000 0.060000 0.060000 0.060000 0.060000 0.060000 0.060000 0.070000 0.070000 0.070000 0.070000 0.070000 0.070000 0.080000 0.080000 0.080000 0.080000 0.080000 0.080000 0.090000 0.090000 0.090000 0.090000 0.090000 0.090000 0.100000 0.100000 0.100000 0.100000 0.100000 0.100000 0.110000 0.110000 0.110000 0.110000 0.110000 0.110000 0.120000 0.120000 0.120000 0.120000 0.120000 0.120000 0.130000 0.130000 0.130000 0.130000 0.130000 0.130000 0.140000 0.140000 0.140000 0.140000 0.140000 0.140000 0.150000 0.150000 0.150000 0.150000 0.150000 0.150000 0.160000 0.160000 0.160000 0.160000 0.160000 0.160000 0.170000 0.170000 0.170000 0.170000 0.170000 0.170000 0.180000 0.180000 0.180000 0.180000 0.180000 0.180000 0.190000 0.190000 0.190000 0.190000 0.190000 0.190000 0.200000 0.200000 0.200000 0.200000 0.200000 0.200000 0.210000 0.210000 0.210000 0.210000 0.210000 0.210000 0.220000 0.220000 0.220000 0.220000 0.220000 0.220000 0.230000 0.230000 0.230000 0.230000 0.230000 0.230000 0.240000 0.240000 0.240000 0.240000 0.240000 0.240000 0.250000 0.250000 0.250000 0.250000 0.250000 0.250000 0.260000 0.260000 0.260000 0.260000 0.260000 0.260000 0.270000 0.270000 0.270000 0.270000 0.270000 0.270000 0.280000 0.280000 0.280000 0.280000 0.280000 0.280000 0.290000 0.290000 0.290000 0.290000 0.290000 0.290000 0.300000 0.300000 0.300000 0.300000 0.300000 0.300000 0.310000 0.310000 0.310000 0.310000 0.310000 0.310000 0.320000 0.320000 0.320000 0.320000 0.320000 0.320000 0.330000 0.330000 0.330000 0.330000 0.330000 0.330000 0.340000 0.340000 0.340000 0.340000 0.340000 0.340000 0.350000 0.350000 0.350000 0.350000 0.350000 0.350000 0.360000 0.360000 0.360000 0.360000 0.360000 0.360000 0.370000 0.370000 0.370000 0.370000 0.370000 0.370000 0.380000 0.380000 0.380000 0.380000 0.380000 0.380000 0.390000 0.390000 0.390000 0.390000 0.390000 0.390000 0.400000 0.400000 0.400000 0.400000 0.400000 0.400000 0.410000 0.410000 0.410000 0.410000 0.410000 0.410000 0.420000 0.420000 0.420000 0.420000 0.420000 0.420000 0.430000 0.430000 0.430000 0.430000 0.430000 0.430000 0.440000 0.440000 0.440000 0.440000 0.440000 0.440000 0.450000 0.450000 0.450000 0.450000 0.450000 0.450000 0.460000 0.460000 0.460000 0.460000 0.460000 0.460000 0.470000 0.470000 0.470000 0.470000 0.470000 0.470000 0.480000 0.480000 0.480000 0.480000 0.480000 0.480000 0.490000 0.490000 0.490000 0.490000 0.490000 0.490000 0.500000 0.500000 0.500000 0.500000 0.500000 0.500000
0.000000 0.000000 0.000000 0.000000 0.000000 0.000000 0.000000 0.000000 0.000000 0.000000 0.000000 0.000000 0.000000 0.000000 0.000000 0.000000 0.000000 0.000000 0.000000 0.000000 0.000000 0.000000 0.000000 0.000000 0.000000 0.000000 0.000000 0.000000 0.000000 0.000000 0.000000 0.000000 0.000000 0.000000 0.000000 0.000000 0.000000 0.000000 0.000000 0.000000 0.000000 0.000000 0.000000 0.000000 0.000000 0.000000 0.000000 0.000000 0.000000 0.000000 0.000000 0.000000 0.000000 0.000000 0.000000 0.000000 0.000000 0.000000 0.000000 0.000000 0.000000 0.000000 0.000000 0.000000 0.000000 0.000000 0.000000 0.000000 0.000000 0.000000 0.000000 0.000000 0.000000 0.000000 0.000000 0.000000 0.000000 0.000000 0.000000 0.000000 0.000000 0.000000 0.000000 0.000000 0.000000 0.000000 0.000000 0.000000 0.000000 0.000000 0.000000 0.000000 0.000000 0.000000 0.000000 0.000000 0.000000 0.000000 0.000000 0.000000 0.000000 0.000000 0.000000 0.000000 0.000000 0.000000 0.000000 0.000000 0.000000 0.000000 0.000000 0.000000 0.000000 0.000000 0.000000 0.000000 0.000000 0.000000 0.000000 0.000000 0.000000 0.000000 0.000000 0.000000 0.000000 0.000000 0.000000 0.000000 0.000000 0.000000 0.000000 0.000000 0.000000 0.000000 0.000000 0.000000 0.000000 0.000000 0.000000 0.000000 0.000000 0.000000 0.000000 0.000000 0.000000 0.000000 0.000000 0.000000 0.000000 0.000000 0.000000 0.000000 0.000000 0.000000 0.000000 0.000000 0.000000 0.000000 0.000000 0.000000 0.000000 0.000000 0.000000 0.000000 0.000000 0.000000 0.000000 0.000000 0.000000 0.000000 0.000000 0.000000 0.000000 0.000000 0.000000 0.000000 0.000000 0.000000 0.000000 0.000000 0.000000 0.000000 0.000000 0.000000 0.000000 0.000000 0.000000 0.000000 0.000000 0.000000 0.000000 0.000000 0.000000 0.000000 0.000000 0.000000 0.000000 0.000000 0.000000 0.000000 0.000000 0.000000 0.000000 0.000000 0.000000 0.000000 0.000000 0.000000 0.000000 0.000000 0.000000 0.000000 0.000000 0.000000 0.000000 0.000000 0.000000 0.000000 0.000000 0.000000 0.000000 0.000000 0.000000 0.000000 0.000000 0.000000 0.000000 0.000000 0.000000 0.000000 0.000000 0.000000 0.000000 0.000000 0.000000 0.000000 0.000000 0.000000 0.000000 0.000000 0.000000 0.000000 0.000000 0.000000 0.000000 0.000000 0.000000 0.000000 0.000000 0.000000 0.000000 0.000000 0.000000 0.000000 0.000000 0.000000 0.000000 0.000000 0.000000 0.000000 0.000000 0.000000 0.000000 0.000000 0.000000 0.000000 0.000000 0.000000 0.000000 0.000000 0.000000 0.000000 0.000000 0.000000 0.000000 0.000000 0.000000 0.000000 0.000000 0.000000 0.000000 0.000000 0.000000 0.000000 0.000000 0.000000 0.000000 0.000000 0.000000 0.000000 0.000000 0.000000 0.000000 0.000000 0.000000 0.000000 0.000000 0.000000 0.000000 0.000000 0.000000 0.000000 0.000000 0.000000 0.000000 0.000000
0.101151 0.133942 0.149580 0.157757 0.161831 0.101121 0.133896 0.149525 0.157696 0.161769 0.101061 0.133803 0.149413 0.157576 0.161643 0.100971 0.133663 0.149246 0.157394 0.161455 0.100850 0.133476 0.149023 0.157152 0.161204 0.100699 0.133241 0.148743 0.156848 0.160889 0.100517 0.132959 0.148406 0.156483 0.160511 0.100303 0.132629 0.148012 0.156056 0.160068 0.100058 0.132250 0.147561 0.155566 0.159560 0.099781 0.131821 0.147050 0.155012 0.158986 0.099470 0.131343 0.146480 0.154395 0.158346 0.099127 0.130813 0.145850 0.153712 0.157639 0.098749 0.130231 0.145158 0.152964 0.156863 0.098336 0.129596 0.144405 0.152148 0.156019 0.097887 0.128907 0.143587 0.151264 0.155103 0.097401 0.128163 0.142705 0.150310 0.154115 0.096877 0.127361 0.141756 0.149285 0.153054 0.096314 0.126500 0.140739 0.148187 0.151918 0.095710 0.125580 0.139652 0.147015 0.150705 0.095063 0.124596 0.138493 0.145766 0.149413 0.094373 0.123549 0.137261 0.144437 0.148039 0.093636 0.122434 0.135951 0.143028 0.146582 0.092851 0.121250 0.134563 0.141534 0.145038 0.092016 0.119994 0.133093 0.139954 0.143406 0.091128 0.118662 0.131537 0.138283 0.141680 0.090184 0.117252 0.129893 0.136519 0.139858 0.089181 0.115759 0.128156 0.134657 0.137936 0.088116 0.114180 0.126322 0.132693 0.135910 0.086983 0.112508 0.124386 0.130621 0.133773 0.085780 0.110740 0.122343 0.128437 0.131522 0.084500 0.108870 0.120186 0.126135 0.129149 0.083138 0.106890 0.117909 0.123707 0.126647 0.081687 0.104794 0.115505 0.121144 0.124008 0.080141 0.102572 0.112963 0.118440 0.121224 0.078490 0.100216 0.110275 0.115582 0.118283 0.076724 0.097713 0.107428 0.112559 0.115174 0.074832 0.095051 0.104409 0.109356 0.111882 0.072799 0.092214 0.101200 0.105958 0.108390 0.070610 0.089184 0.097784 0.102343 0.104677 0.068245 0.085939 0.094136 0.098488 0.100719 0.065679 0.082450 0.090228 0.094363 0.096486 0.062882 0.078685 0.086022 0.089930 0.091940 0.059815 0.074598 0.081473 0.085141 0.087030 0.056428 0.070132 0.076518 0.079931 0.081691 0.052651 0.065207 0.071071 0.074211 0.075833 0.048385 0.059706 0.065008 0.067854 0.069325 0.043479 0.053453 0.058139 0.060659 0.061964 0.037675 0.046144 0.050136 0.052288 0.053404 0.030470 0.037177 0.040351 0.042065 0.042956 0.020536 0.024959 0.027061 0.028199 0.028792 