Variables="X","Y","Z","GAMMA"
ZONE T="WING" i=6,j=51,k=1, ZONETYPE=Ordered
DATAPACKING=BLOCK
VARLOCATION=([4]=CELLCENTERED)
0.000000 0.200000 0.400000 0.600000 0.800000 1.000000 0.000000 0.200000 0.400000 0.600000 0.800000 1.000000 0.000000 0.200000 0.400000 0.600000 0.800000 1.000000 0.000000 0.200000 0.400000 0.600000 0.800000 1.000000 0.000000 0.200000 0.400000 0.600000 0.800000 1.000000 0.000000 0.200000 0.400000 0.600000 0.800000 1.000000 0.000000 0.200000 0.400000 0.600000 0.800000 1.000000 0.000000 0.200000 0.400000 0.600000 0.800000 1.000000 0.000000 0.200000 0.400000 0.600000 0.800000 1.000000 0.000000 0.200000 0.400000 0.600000 0.800000 1.000000 0.000000 0.200000 0.400000 0.600000 0.800000 1.000000 0.000000 0.200000 0.400000 0.600000 0.800000 1.000000 0.000000 0.200000 0.400000 0.600000 0.800000 1.000000 0.000000 0.200000 0.400000 0.600000 0.800000 1.000000 0.000000 0.200000 0.400000 0.600000 0.800000 1.000000 0.000000 0.200000 0.400000 0.600000 0.800000 1.000000 0.000000 0.200000 0.400000 0.600000 0.800000 1.000000 0.000000 0.200000 0.400000 0.600000 0.800000 1.000000 0.000000 0.200000 0.400000 0.600000 0.800000 1.000000 0.000000 0.200000 0.400000 0.600000 0.800000 1.000000 0.000000 0.200000 0.400000 0.600000 0.800000 1.000000 0.000000 0.200000 0.400000 0.600000 0.800000 1.000000 0.000000 0.200000 0.400000 0.600000 0.800000 1.000000 0.000000 0.200000 0.400000 0.600000 0.800000 1.000000 0.000000 0.200000 0.400000 0.600000 0.800000 1.000000 0.000000 0.200000 0.400000 0.600000 0.800000 1.000000 0.000000 0.200000 0.400000 0.600000 0.800000 1.000000 0.000000 0.200000 0.400000 0.600000 0.800000 1.000000 0.000000 0.200000 0.400000 0.600000 0.800000 1.000000 0.000000 0.200000 0.400000 0.600000 0.800000 1.000000 0.000000 0.200000 0.400000 0.600000 0.800000 1.000000 0.000000 0.200000 0.400000 0.600000 0.800000 1.000000 0.000000 0.200000 0.400000 0.600000 0.800000 1.000000 0.000000 0.200000 0.400000 0.600000 0.800000 1.000000 0.000000 0.200000 0.400000 0.600000 0.800000 1.000000 0.000000 0.200000 0.400000 0.600000 0.800000 1.000000 0.000000 0.200000 0.400000 0.600000 0.800000 1.000000 0.000000 0.200000 0.400000 0.600000 0.800000 1.000000 0.000000 0.200000 0.400000 0.600000 0.800000 1.000000 0.000000 0.200000 0.400000 0.600000 0.800000 1.000000 0.000000 0.200000 0.400000 0.600000 0.800000 1.000000 0.000000 0.200000 0.400000 0.600000 0.800000 1.000000 0.000000 0.200000 0.400000 0.600000 0.800000 1.000000 0.000000 0.200000 0.400000 0.600000 0.800000 1.000000 0.000000 0.200000 0.400000 0.600000 0.800000 1.000000 0.000000 0.200000 0.400000 0.600000 0.800000 1.000000 0.000000 0.200000 0.400000 0.600000 0.800000 1.000000 0.000000 0.200000 0.400000 0.600000 0.800000 1.000000 0.000000 0.200000 0.400000 0.600000 0.800000 1.000000 0.000000 0.200000 0.400000 0.600000 0.800000 1.000000 0.000000 0.200000 0.400000 0.600000 0.800000 1.000000
0.000000 0.000000 0.000000 0.000000 0.000000 0.000000 0.040000 0.040000 0.040000 0.040000 0.040000 0.040000 0.080000 0.080000 0.080000 0.080000 0.080000 0.080000 0.120000 0.120000 0.120000 0.120000 0.120000 0.120000 0.160000 0.160000 0.160000 0.160000 0.160000 0.160000 0.200000 0.200000 0.200000 0.200000 0.200000 0.200000 0.240000 0.240000 0.240000 0.240000 0.240000 0.240000 0.280000 0.280000 0.280000 0.280000 0.280000 0.280000 0.320000 0.320000 0.320000 0.320000 0.320000 0.320000 0.360000 0.360000 0.360000 0.360000 0.360000 0.360000 0.400000 0.400000 0.400000 0.400000 0.400000 0.400000 0.440000 0.440000 0.440000 0.440000 0.440000 0.440000 0.480000 0.480000 0.480000 0.480000 0.480000 0.480000 0.520000 0.520000 0.520000 0.520000 0.520000 0.520000 0.560000 0.560000 0.560000 0.560000 0.560000 0.560000 0.600000 0.600000 0.600000 0.600000 0.600000 0.600000 0.640000 0.640000 0.640000 0.640000 0.640000 0.640000 0.680000 0.680000 0.680000 0.680000 0.680000 0.680000 0.720000 0.720000 0.720000 0.720000 0.720000 0.720000 0.760000 0.760000 0.760000 0.760000 0.760000 0.760000 0.800000 0.800000 0.800000 0.800000 0.800000 0.800000 0.840000 0.840000 0.840000 0.840000 0.840000 0.840000 0.880000 0.880000 0.880000 0.880000 0.880000 0.880000 0.920000 0.920000 0.920000 0.920000 0.920000 0.920000 0.960000 0.960000 0.960000 0.960000 0.960000 0.960000 1.000000 1.000000 1.000000 1.000000 1.000000 1.000000 1.040000 1.040000 1.040000 1.040000 1.040000 1.040000 1.080000 1.080000 1.080000 1.080000 1.080000 1.080000 1.120000 1.120000 1.120000 1.120000 1.120000 1.120000 1.160000 1.160000 1.160000 1.160000 1.160000 1.160000 1.200000 1.200000 1.200000 1.200000 1.200000 1.200000 1.240000 1.240000 1.240000 1.240000 1.240000 1.240000 1.280000 1.280000 1.280000 1.280000 1.280000 1.280000 1.320000 1.320000 1.320000 1.320000 1.320000 1.320000 1.360000 1.360000 1.360000 1.360000 1.360000 1.360000 1.400000 1.400000 1.400000 1.400000 1.400000 1.400000 1.440000 1.440000 1.440000 1.440000 1.440000 1.440000 1.480000 1.480000 1.480000 1.480000 1.480000 1.480000 1.520000 1.520000 1.520000 1.520000 1.520000 1.520000 1.560000 1.560000 1.560000 1.560000 1.560000 1.560000 1.600000 1.600000 1.600000 1.600000 1.600000 1.600000 1.640000 1.640000 1.640000 1.640000 1.640000 1.640000 1.680000 1.680000 1.680000 1.680000 1.680000 1.680000 1.720000 1.720000 1.720000 1.720000 1.720000 1.720000 1.760000 1.760000 1.760000 1.760000 1.760000 1.760000 1.800000 1.800000 1.800000 1.800000 1.800000 1.800000 1.840000 1.840000 1.840000 1.840000 1.840000 1.840000 1.880000 1.880000 1.880000 1.880000 1.880000 1.880000 1.920000 1.920000 1.920000 1.920000 1.920000 1.920000 1.960000 1.960000 1.960000 1.960000 1.960000 1.960000 2.000000 2.000000 2.000000 2.000000 2.000000 2.000000
0.000000 0.000000 0.000000 0.000000 0.000000 0.000000 0.000000 0.000000 0.000000 0.000000 0.000000 0.000000 0.000000 0.000000 0.000000 0.000000 0.000000 0.000000 0.000000 0.000000 0.000000 0.000000 0.000000 0.000000 0.000000 0.000000 0.000000 0.000000 0.000000 0.000000 0.000000 0.000000 0.000000 0.000000 0.000000 0.000000 0.000000 0.000000 0.000000 0.000000 0.000000 0.000000 0.000000 0.000000 0.000000 0.000000 0.000000 0.000000 0.000000 0.000000 0.000000 0.000000 0.000000 0.000000 0.000000 0.000000 0.000000 0.000000 0.000000 0.000000 0.000000 0.000000 0.000000 0.000000 0.000000 0.000000 0.000000 0.000000 0.000000 0.000000 0.000000 0.000000 0.000000 0.000000 0.000000 0.000000 0.000000 0.000000 0.000000 0.000000 0.000000 0.000000 0.000000 0.000000 0.000000 0.000000 0.000000 0.000000 0.000000 0.000000 0.000000 0.000000 0.000000 0.000000 0.000000 0.000000 0.000000 0.000000 0.000000 0.000000 0.000000 0.000000 0.000000 0.000000 0.000000 0.000000 0.000000 0.000000 0.000000 0.000000 0.000000 0.000000 0.000000 0.000000 0.000000 0.000000 0.000000 0.000000 0.000000 0.000000 0.000000 0.000000 0.000000 0.000000 0.000000 0.000000 0.000000 0.000000 0.000000 0.000000 0.000000 0.000000 0.000000 0.000000 0.000000 0.000000 0.000000 0.000000 0.000000 0.000000 0.000000 0.000000 0.000000 0.000000 0.000000 0.000000 0.000000 0.000000 0.000000 0.000000 0.000000 0.000000 0.000000 0.000000 0.000000 0.000000 0.000000 0.000000 0.000000 0.000000 0.000000 0.000000 0.000000 0.000000 0.000000 0.000000 0.000000 0.000000 0.000000 0.000000 0.000000 0.000000 0.000000 0.000000 0.000000 0.000000 0.000000 0.000000 0.000000 0.000000 0.000000 0.000000 0.000000 0.000000 0.000000 0.000000 0.000000 0.000000 0.000000 0.000000 0.000000 0.000000 0.000000 0.000000 0.000000 0.000000 0.000000 0.000000 0.000000 0.000000 0.000000 0.000000 0.000000 0.000000 0.000000 0.000000 0.000000 0.000000 0.000000 0.000000 0.000000 0.000000 0.000000 0.000000 0.000000 0.000000 0.000000 0.000000 0.000000 0.000000 0.000000 0.000000 0.000000 0.000000 0.000000 0.000000 0.000000 0.000000 0.000000 0.000000 0.000000 0.000000 0.000000 0.000000 0.000000 0.000000 0.000000 0.000000 0.000000 0.000000 0.000000 0.000000 0.000000 0.000000 0.000000 0.000000 0.000000 0.000000 0.000000 0.000000 0.000000 0.000000 0.000000 0.000000 0.000000 0.000000 0.000000 0.000000 0.000000 0.000000 0.000000 0.000000 0.000000 0.000000 0.000000 0.000000 0.000000 0.000000 0.000000 0.000000 0.000000 0.000000 0.000000 0.000000 0.000000 0.000000 0.000000 0.000000 0.000000 0.000000 0.000000 0.000000 0.000000 0.000000 0.000000 0.000000 0.000000 0.000000 0.000000 0.000000 0.000000 0.000000 0.000000 0.000000 0.000000 0.000000 0.000000 0.000000 0.000000 0.000000 0.000000 0.000000 0.000000 0.000000 0.000000 0.000000
0.193994 0.277603 0.329824 0.363752 0.383119 0.193953 0.277540 0.329745 0.363660 0.383020 0.193872 0.277414 0.329586 0.363477 0.382821 0.193749 0.277225 0.329346 0.363201 0.382522 0.193585 0.276971 0.329026 0.362831 0.382123 0.193380 0.276654 0.328625 0.362368 0.381622 0.193132 0.276270 0.328140 0.361810 0.381018 0.192841 0.275820 0.327572 0.361154 0.380308 0.192507 0.275303 0.326918 0.360400 0.379492 0.192128 0.274716 0.326176 0.359544 0.378567 0.191704 0.274059 0.325345 0.358586 0.377530 0.191233 0.273329 0.324422 0.357521 0.376378 0.190714 0.272524 0.323404 0.356347 0.375109 0.190146 0.271642 0.322289 0.355061 0.373717 0.189526 0.270681 0.321073 0.353658 0.372200 0.188854 0.269637 0.319752 0.352134 0.370552 0.188127 0.268508 0.318322 0.350484 0.368768 0.187343 0.267289 0.316778 0.348704 0.366843 0.186499 0.265976 0.315116 0.346787 0.364770 0.185593 0.264566 0.313330 0.344726 0.362543 0.184622 0.263053 0.311413 0.342516 0.360154 0.183582 0.261432 0.309359 0.340147 0.357595 0.182471 0.259698 0.307160 0.337611 0.354856 0.181282 0.257842 0.304808 0.334899 0.351928 0.180013 0.255858 0.302292 0.332001 0.348798 0.178658 0.253738 0.299604 0.328903 0.345456 0.177211 0.251472 0.296730 0.325594 0.341886 0.175665 0.249050 0.293659 0.322058 0.338074 0.174014 0.246460 0.290375 0.318280 0.334003 0.172249 0.243688 0.286861 0.314241 0.329654 0.170361 0.240720 0.283101 0.309921 0.325005 0.168339 0.237539 0.279071 0.305297 0.320034 0.166171 0.234124 0.274749 0.300342 0.314712 0.163841 0.230452 0.270106 0.295028 0.309009 0.161334 0.226497 0.265111 0.289319 0.302890 0.158628 0.222228 0.259727 0.283177 0.296316 0.155701 0.217607 0.253912 0.276556 0.289237 0.152523 0.212591 0.247613 0.269402 0.281601 0.149058 0.207126 0.240771 0.261651 0.273342 0.145263 0.201146 0.233312 0.253227 0.264382 0.141081 0.194572 0.225147 0.244036 0.254625 0.136440 0.187300 0.216163 0.233963 0.243953 0.131243 0.179200 0.206217 0.222858 0.232215 0.125359 0.170097 0.195124 0.210528 0.219211 0.118603 0.159755 0.182628 0.196709 0.204672 0.110700 0.147835 0.168368 0.181023 0.188210 0.101219 0.133821 0.151792 0.162895 0.169232 0.089428 0.116854 0.131975 0.141352 0.146736 0.073894 0.095266 0.107103 0.114482 0.118749 0.050969 0.064733 0.072434 0.077266 0.080081 