Variables="X","Y","Z","GAMMA"
ZONE T="WING" i=6,j=51,k=1, ZONETYPE=Ordered
DATAPACKING=BLOCK
VARLOCATION=([4]=CELLCENTERED)
0.000000 0.200000 0.400000 0.600000 0.800000 1.000000 0.000000 0.196000 0.392000 0.588000 0.784000 0.980000 0.000000 0.192000 0.384000 0.576000 0.768000 0.960000 0.000000 0.188000 0.376000 0.564000 0.752000 0.940000 0.000000 0.184000 0.368000 0.552000 0.736000 0.920000 0.000000 0.180000 0.360000 0.540000 0.720000 0.900000 0.000000 0.176000 0.352000 0.528000 0.704000 0.880000 0.000000 0.172000 0.344000 0.516000 0.688000 0.860000 0.000000 0.168000 0.336000 0.504000 0.672000 0.840000 0.000000 0.164000 0.328000 0.492000 0.656000 0.820000 0.000000 0.160000 0.320000 0.480000 0.640000 0.800000 0.000000 0.156000 0.312000 0.468000 0.624000 0.780000 0.000000 0.152000 0.304000 0.456000 0.608000 0.760000 0.000000 0.148000 0.296000 0.444000 0.592000 0.740000 0.000000 0.144000 0.288000 0.432000 0.576000 0.720000 0.000000 0.140000 0.280000 0.420000 0.560000 0.700000 0.000000 0.136000 0.272000 0.408000 0.544000 0.680000 0.000000 0.132000 0.264000 0.396000 0.528000 0.660000 0.000000 0.128000 0.256000 0.384000 0.512000 0.640000 0.000000 0.124000 0.248000 0.372000 0.496000 0.620000 0.000000 0.120000 0.240000 0.360000 0.480000 0.600000 0.000000 0.116000 0.232000 0.348000 0.464000 0.580000 0.000000 0.112000 0.224000 0.336000 0.448000 0.560000 0.000000 0.108000 0.216000 0.324000 0.432000 0.540000 0.000000 0.104000 0.208000 0.312000 0.416000 0.520000 0.000000 0.100000 0.200000 0.300000 0.400000 0.500000 0.000000 0.096000 0.192000 0.288000 0.384000 0.480000 0.000000 0.092000 0.184000 0.276000 0.368000 0.460000 0.000000 0.088000 0.176000 0.264000 0.352000 0.440000 0.000000 0.084000 0.168000 0.252000 0.336000 0.420000 0.000000 0.080000 0.160000 0.240000 0.320000 0.400000 0.000000 0.076000 0.152000 0.228000 0.304000 0.380000 0.000000 0.072000 0.144000 0.216000 0.288000 0.360000 0.000000 0.068000 0.136000 0.204000 0.272000 0.340000 0.000000 0.064000 0.128000 0.192000 0.256000 0.320000 0.000000 0.060000 0.120000 0.180000 0.240000 0.300000 0.000000 0.056000 0.112000 0.168000 0.224000 0.280000 0.000000 0.052000 0.104000 0.156000 0.208000 0.260000 0.000000 0.048000 0.096000 0.144000 0.192000 0.240000 0.000000 0.044000 0.088000 0.132000 0.176000 0.220000 0.000000 0.040000 0.080000 0.120000 0.160000 0.200000 0.000000 0.036000 0.072000 0.108000 0.144000 0.180000 0.000000 0.032000 0.064000 0.096000 0.128000 0.160000 0.000000 0.028000 0.056000 0.084000 0.112000 0.140000 0.000000 0.024000 0.048000 0.072000 0.096000 0.120000 0.000000 0.020000 0.040000 0.060000 0.080000 0.100000 0.000000 0.016000 0.032000 0.048000 0.064000 0.080000 0.000000 0.012000 0.024000 0.036000 0.048000 0.060000 0.000000 0.008000 0.016000 0.024000 0.032000 0.040000 0.000000 0.004000 0.008000 0.012000 0.016000 0.020000 0.000000 0.000000 0.000000 0.000000 0.000000 0.000000
0.000000 0.000000 0.000000 0.000000 0.000000 0.000000 0.072800 0.072800 0.072800 0.072800 0.072800 0.072800 0.145600 0.145600 0.145600 0.145600 0.145600 0.145600 0.218400 0.218400 0.218400 0.218400 0.218400 0.218400 0.291200 0.291200 0.291200 0.291200 0.291200 0.291200 0.364000 0.364000 0.364000 0.364000 0.364000 0.364000 0.436800 0.436800 0.436800 0.436800 0.436800 0.436800 0.509600 0.509600 0.509600 0.509600 0.509600 0.509600 0.582400 0.582400 0.582400 0.582400 0.582400 0.582400 0.655200 0.655200 0.655200 0.655200 0.655200 0.655200 0.728000 0.728000 0.728000 0.728000 0.728000 0.728000 0.800800 0.800800 0.800800 0.800800 0.800800 0.800800 0.873600 0.873600 0.873600 0.873600 0.873600 0.873600 0.946400 0.946400 0.946400 0.946400 0.946400 0.946400 1.019200 1.019200 1.019200 1.019200 1.019200 1.019200 1.092000 1.092000 1.092000 1.092000 1.092000 1.092000 1.164800 1.164800 1.164800 1.164800 1.164800 1.164800 1.237600 1.237600 1.237600 1.237600 1.237600 1.237600 1.310400 1.310400 1.310400 1.310400 1.310400 1.310400 1.383200 1.383200 1.383200 1.383200 1.383200 1.383200 1.456000 1.456000 1.456000 1.456000 1.456000 1.456000 1.528800 1.528800 1.528800 1.528800 1.528800 1.528800 1.601600 1.601600 1.601600 1.601600 1.601600 1.601600 1.674400 1.674400 1.674400 1.674400 1.674400 1.674400 1.747200 1.747200 1.747200 1.747200 1.747200 1.747200 1.820000 1.820000 1.820000 1.820000 1.820000 1.820000 1.892800 1.892800 1.892800 1.892800 1.892800 1.892800 1.965600 1.965600 1.965600 1.965600 1.965600 1.965600 2.038400 2.038400 2.038400 2.038400 2.038400 2.038400 2.111200 2.111200 2.111200 2.111200 2.111200 2.111200 2.184000 2.184000 2.184000 2.184000 2.184000 2.184000 2.256800 2.256800 2.256800 2.256800 2.256800 2.256800 2.329600 2.329600 2.329600 2.329600 2.329600 2.329600 2.402400 2.402400 2.402400 2.402400 2.402400 2.402400 2.475200 2.475200 2.475200 2.475200 2.475200 2.475200 2.548000 2.548000 2.548000 2.548000 2.548000 2.548000 2.620800 2.620800 2.620800 2.620800 2.620800 2.620800 2.693600 2.693600 2.693600 2.693600 2.693600 2.693600 2.766400 2.766400 2.766400 2.766400 2.766400 2.766400 2.839200 2.839200 2.839200 2.839200 2.839200 2.839200 2.912000 2.912000 2.912000 2.912000 2.912000 2.912000 2.984800 2.984800 2.984800 2.984800 2.984800 2.984800 3.057600 3.057600 3.057600 3.057600 3.057600 3.057600 3.130400 3.130400 3.130400 3.130400 3.130400 3.130400 3.203200 3.203200 3.203200 3.203200 3.203200 3.203200 3.276000 3.276000 3.276000 3.276000 3.276000 3.276000 3.348800 3.348800 3.348800 3.348800 3.348800 3.348800 3.421600 3.421600 3.421600 3.421600 3.421600 3.421600 3.494400 3.494400 3.494400 3.494400 3.494400 3.494400 3.567200 3.567200 3.567200 3.567200 3.567200 3.567200 3.640000 3.640000 3.640000 3.640000 3.640000 3.640000
0.000000 0.000000 0.000000 0.000000 0.000000 0.000000 0.000000 0.000000 0.000000 0.000000 0.000000 0.000000 0.000000 0.000000 0.000000 0.000000 0.000000 0.000000 0.000000 0.000000 0.000000 0.000000 0.000000 0.000000 0.000000 0.000000 0.000000 0.000000 0.000000 0.000000 0.000000 0.000000 0.000000 0.000000 0.000000 0.000000 0.000000 0.000000 0.000000 0.000000 0.000000 0.000000 0.000000 0.000000 0.000000 0.000000 0.000000 0.000000 0.000000 0.000000 0.000000 0.000000 0.000000 0.000000 0.000000 0.000000 0.000000 0.000000 0.000000 0.000000 0.000000 0.000000 0.000000 0.000000 0.000000 0.000000 0.000000 0.000000 0.000000 0.000000 0.000000 0.000000 0.000000 0.000000 0.000000 0.000000 0.000000 0.000000 0.000000 0.000000 0.000000 0.000000 0.000000 0.000000 0.000000 0.000000 0.000000 0.000000 0.000000 0.000000 0.000000 0.000000 0.000000 0.000000 0.000000 0.000000 0.000000 0.000000 0.000000 0.000000 0.000000 0.000000 0.000000 0.000000 0.000000 0.000000 0.000000 0.000000 0.000000 0.000000 0.000000 0.000000 0.000000 0.000000 0.000000 0.000000 0.000000 0.000000 0.000000 0.000000 0.000000 0.000000 0.000000 0.000000 0.000000 0.000000 0.000000 0.000000 0.000000 0.000000 0.000000 0.000000 0.000000 0.000000 0.000000 0.000000 0.000000 0.000000 0.000000 0.000000 0.000000 0.000000 0.000000 0.000000 0.000000 0.000000 0.000000 0.000000 0.000000 0.000000 0.000000 0.000000 0.000000 0.000000 0.000000 0.000000 0.000000 0.000000 0.000000 0.000000 0.000000 0.000000 0.000000 0.000000 0.000000 0.000000 0.000000 0.000000 0.000000 0.000000 0.000000 0.000000 0.000000 0.000000 0.000000 0.000000 0.000000 0.000000 0.000000 0.000000 0.000000 0.000000 0.000000 0.000000 0.000000 0.000000 0.000000 0.000000 0.000000 0.000000 0.000000 0.000000 0.000000 0.000000 0.000000 0.000000 0.000000 0.000000 0.000000 0.000000 0.000000 0.000000 0.000000 0.000000 0.000000 0.000000 0.000000 0.000000 0.000000 0.000000 0.000000 0.000000 0.000000 0.000000 0.000000 0.000000 0.000000 0.000000 0.000000 0.000000 0.000000 0.000000 0.000000 0.000000 0.000000 0.000000 0.000000 0.000000 0.000000 0.000000 0.000000 0.000000 0.000000 0.000000 0.000000 0.000000 0.000000 0.000000 0.000000 0.000000 0.000000 0.000000 0.000000 0.000000 0.000000 0.000000 0.000000 0.000000 0.000000 0.000000 0.000000 0.000000 0.000000 0.000000 0.000000 0.000000 0.000000 0.000000 0.000000 0.000000 0.000000 0.000000 0.000000 0.000000 0.000000 0.000000 0.000000 0.000000 0.000000 0.000000 0.000000 0.000000 0.000000 0.000000 0.000000 0.000000 0.000000 0.000000 0.000000 0.000000 0.000000 0.000000 0.000000 0.000000 0.000000 0.000000 0.000000 0.000000 0.000000 0.000000 0.000000 0.000000 0.000000 0.000000 0.000000 0.000000 0.000000 0.000000 0.000000 0.000000 0.000000 0.000000 0.000000 0.000000 0.000000 0.000000
0.193267 0.276489 0.327895 0.360488 0.378244 0.192026 0.274712 0.325964 0.358668 0.376748 0.190364 0.272424 0.323447 0.356189 0.374483 0.188441 0.269805 0.320532 0.353232 0.371633 0.186319 0.266914 0.317282 0.349866 0.368294 0.184032 0.263783 0.313729 0.346134 0.364529 0.181599 0.260433 0.309900 0.342071 0.360383 0.179035 0.256882 0.305814 0.337702 0.355894 0.176350 0.253144 0.301490 0.333051 0.351090 0.173553 0.249231 0.296944 0.328138 0.345996 0.170649 0.245154 0.292189 0.322981 0.340632 0.167645 0.240923 0.287238 0.317595 0.335018 0.164546 0.236546 0.282101 0.311994 0.329168 0.161357 0.232030 0.276790 0.306190 0.323097 0.158082 0.227383 0.271313 0.300194 0.316817 0.154725 0.222609 0.265678 0.294016 0.310339 0.151289 0.217716 0.259893 0.287664 0.303674 0.147778 0.212709 0.253964 0.281149 0.296830 0.144193 0.207591 0.247899 0.274476 0.289816 0.140539 0.202368 0.241701 0.267652 0.282640 0.136817 0.197042 0.235378 0.260684 0.275307 0.133030 0.191619 0.228933 0.253577 0.267825 0.129180 0.186101 0.222370 0.246336 0.260199 0.125268 0.180491 0.215695 0.238966 0.252433 0.121297 0.174792 0.208909 0.231472 0.244534 0.117267 0.169007 0.202017 0.223856 0.236504 0.113181 0.163137 0.195021 0.216123 0.228348 0.109039 0.157185 0.187923 0.208275 0.220069 0.104843 0.151152 0.180727 0.200315 0.211671 0.100594 0.145040 0.173435 0.192246 0.203155 0.096292 0.138850 0.166046 0.184069 0.194523 0.091938 0.132583 0.158565 0.175787 0.185779 0.087532 0.126240 0.150990 0.167400 0.176923 0.083075 0.119822 0.143324 0.158909 0.167956 0.078567 0.113329 0.135566 0.150316 0.158879 0.074008 0.106760 0.127716 0.141619 0.149692 0.069397 0.100116 0.119775 0.132820 0.140396 0.064734 0.093395 0.111741 0.123916 0.130988 0.060017 0.086596 0.103612 0.114907 0.121467 0.055246 0.079718 0.095387 0.105789 0.111832 0.050419 0.072757 0.087063 0.096561 0.102078 0.045532 0.065711 0.078635 0.087216 0.092201 0.040584 0.058574 0.070098 0.077749 0.082193 0.035569 0.051340 0.061443 0.068152 0.072048 0.030481 0.044000 0.052661 0.058412 0.061751 0.025311 0.036541 0.043737 0.048513 0.051285 0.020047 0.028944 0.034646 0.038430 0.040624 0.014666 0.021178 0.025352 0.028120 0.029724 0.009128 0.013183 0.015783 0.017506 0.018503 0.003332 0.004813 0.005763 0.006393 0.006758 