Variables="X","Y","Z","GAMMA"
ZONE T="WING" i=6,j=51,k=1, ZONETYPE=Ordered
DATAPACKING=BLOCK
VARLOCATION=([4]=CELLCENTERED)
0.000000 0.200000 0.400000 0.600000 0.800000 1.000000 0.140042 0.337641 0.535241 0.732841 0.930441 1.128041 0.280083 0.475282 0.670481 0.865681 1.060880 1.256079 0.420125 0.612923 0.805721 0.998519 1.191318 1.384116 0.560166 0.750563 0.940960 1.131357 1.321754 1.512151 0.700208 0.888203 1.076198 1.264194 1.452189 1.640185 0.840249 1.025843 1.211436 1.397030 1.582623 1.768216 0.980291 1.163482 1.346673 1.529864 1.713056 1.896247 1.120332 1.301121 1.481910 1.662698 1.843487 2.024276 1.260374 1.438759 1.617145 1.795531 1.973917 2.152303 1.400415 1.576398 1.752381 1.928364 2.104346 2.280329 1.540457 1.714036 1.887616 2.061195 2.234775 2.408354 1.680498 1.851674 2.022850 2.194026 2.365202 2.536378 1.820540 1.989312 2.158084 2.326856 2.495628 2.664401 1.960581 2.126949 2.293318 2.459686 2.626054 2.792422 2.100623 2.264587 2.428551 2.592515 2.756479 2.920443 2.240664 2.402224 2.563783 2.725343 2.886903 3.048463 2.380706 2.539861 2.699016 2.858171 3.017326 3.176481 2.520747 2.677498 2.834248 2.990999 3.147749 3.304500 2.660789 2.815134 2.969480 3.123826 3.278171 3.432517 2.800830 2.952771 3.104712 3.256652 3.408593 3.560534 2.940872 3.090407 3.239943 3.389479 3.539014 3.688550 3.080913 3.228044 3.375174 3.522305 3.669435 3.816566 3.220955 3.365680 3.510405 3.655131 3.799856 3.944581 3.360996 3.503316 3.645636 3.787956 3.930276 4.072596 3.501038 3.640952 3.780867 3.920782 4.060697 4.200611 3.641079 3.778589 3.916098 4.053607 4.191117 4.328626 3.781121 3.916225 4.051329 4.186433 4.321536 4.456640 3.921162 4.053861 4.186559 4.319258 4.451956 4.584655 4.061204 4.191497 4.321790 4.452083 4.582376 4.712669 4.201245 4.329133 4.457021 4.584908 4.712796 4.840684 4.341287 4.466769 4.592251 4.717734 4.843216 4.968699 4.481328 4.604405 4.727482 4.850559 4.973636 5.096713 4.621370 4.742042 4.862713 4.983385 5.104057 5.224729 4.761411 4.879678 4.997944 5.116211 5.234478 5.352744 4.901453 5.017314 5.133176 5.249037 5.364899 5.480760 5.041494 5.154951 5.268407 5.381864 5.495320 5.608777 5.181536 5.292587 5.403639 5.514691 5.625742 5.736794 5.321577 5.430224 5.538871 5.647518 5.756165 5.864812 5.461619 5.567861 5.674103 5.780346 5.886588 5.992830 5.601660 5.705498 5.809336 5.913174 6.017012 6.120850 5.741702 5.843135 5.944569 6.046003 6.147436 6.248870 5.881743 5.980773 6.079802 6.178832 6.277861 6.376891 6.021785 6.118410 6.215036 6.311662 6.408287 6.504913 6.161826 6.256048 6.350270 6.444492 6.538714 6.632936 6.301868 6.393686 6.485505 6.577323 6.669142 6.760960 6.441909 6.531325 6.620740 6.710155 6.799570 6.888986 6.581951 6.668963 6.755975 6.842988 6.930000 7.017012 6.721992 6.806602 6.891212 6.975821 7.060431 7.145040 6.862034 6.944241 7.026448 7.108656 7.190863 7.273070 7.002075 7.081881 7.161686 7.241491 7.321296 7.401101
0.000000 0.000000 0.000000 0.000000 0.000000 0.000000 0.200000 0.200000 0.200000 0.200000 0.200000 0.200000 0.400000 0.400000 0.400000 0.400000 0.400000 0.400000 0.600000 0.600000 0.600000 0.600000 0.600000 0.600000 0.800000 0.800000 0.800000 0.800000 0.800000 0.800000 1.000000 1.000000 1.000000 1.000000 1.000000 1.000000 1.200000 1.200000 1.200000 1.200000 1.200000 1.200000 1.400000 1.400000 1.400000 1.400000 1.400000 1.400000 1.600000 1.600000 1.600000 1.600000 1.600000 1.600000 1.800000 1.800000 1.800000 1.800000 1.800000 1.800000 2.000000 2.000000 2.000000 2.000000 2.000000 2.000000 2.200000 2.200000 2.200000 2.200000 2.200000 2.200000 2.400000 2.400000 2.400000 2.400000 2.400000 2.400000 2.600000 2.600000 2.600000 2.600000 2.600000 2.600000 2.800000 2.800000 2.800000 2.800000 2.800000 2.800000 3.000000 3.000000 3.000000 3.000000 3.000000 3.000000 3.200000 3.200000 3.200000 3.200000 3.200000 3.200000 3.400000 3.400000 3.400000 3.400000 3.400000 3.400000 3.600000 3.600000 3.600000 3.600000 3.600000 3.600000 3.800000 3.800000 3.800000 3.800000 3.800000 3.800000 4.000000 4.000000 4.000000 4.000000 4.000000 4.000000 4.200000 4.200000 4.200000 4.200000 4.200000 4.200000 4.400000 4.400000 4.400000 4.400000 4.400000 4.400000 4.600000 4.600000 4.600000 4.600000 4.600000 4.600000 4.800000 4.800000 4.800000 4.800000 4.800000 4.800000 5.000000 5.000000 5.000000 5.000000 5.000000 5.000000 5.200000 5.200000 5.200000 5.200000 5.200000 5.200000 5.400000 5.400000 5.400000 5.400000 5.400000 5.400000 5.600000 5.600000 5.600000 5.600000 5.600000 5.600000 5.800000 5.800000 5.800000 5.800000 5.800000 5.800000 6.000000 6.000000 6.000000 6.000000 6.000000 6.000000 6.200000 6.200000 6.200000 6.200000 6.200000 6.200000 6.400000 6.400000 6.400000 6.400000 6.400000 6.400000 6.600000 6.600000 6.600000 6.600000 6.600000 6.600000 6.800000 6.800000 6.800000 6.800000 6.800000 6.800000 7.000000 7.000000 7.000000 7.000000 7.000000 7.000000 7.200000 7.200000 7.200000 7.200000 7.200000 7.200000 7.400000 7.400000 7.400000 7.400000 7.400000 7.400000 7.600000 7.600000 7.600000 7.600000 7.600000 7.600000 7.800000 7.800000 7.800000 7.800000 7.800000 7.800000 8.000000 8.000000 8.000000 8.000000 8.000000 8.000000 8.200000 8.200000 8.200000 8.200000 8.200000 8.200000 8.400000 8.400000 8.400000 8.400000 8.400000 8.400000 8.600000 8.600000 8.600000 8.600000 8.600000 8.600000 8.800000 8.800000 8.800000 8.800000 8.800000 8.800000 9.000000 9.000000 9.000000 9.000000 9.000000 9.000000 9.200000 9.200000 9.200000 9.200000 9.200000 9.200000 9.400000 9.400000 9.400000 9.400000 9.400000 9.400000 9.600000 9.600000 9.600000 9.600000 9.600000 9.600000 9.800000 9.800000 9.800000 9.800000 9.800000 9.800000 10.000000 10.000000 10.000000 10.000000 10.000000 10.000000
0.000000 0.000000 0.000000 0.000000 0.000000 0.000000 0.000000 0.000276 0.000552 0.000828 0.001104 0.001380 0.000000 0.000545 0.001090 0.001635 0.002180 0.002726 0.000000 0.000808 0.001615 0.002423 0.003230 0.004038 0.000000 0.001063 0.002127 0.003190 0.004254 0.005317 0.000000 0.001312 0.002625 0.003937 0.005250 0.006562 0.000000 0.001555 0.003110 0.004665 0.006219 0.007774 0.000000 0.001791 0.003581 0.005372 0.007162 0.008953 0.000000 0.002020 0.004039 0.006059 0.008078 0.010098 0.000000 0.002242 0.004484 0.006725 0.008967 0.011209 0.000000 0.002457 0.004915 0.007372 0.009829 0.012287 0.000000 0.002666 0.005332 0.007999 0.010665 0.013331 0.000000 0.002868 0.005737 0.008605 0.011473 0.014342 0.000000 0.003064 0.006128 0.009191 0.012255 0.015319 0.000000 0.003253 0.006505 0.009758 0.013010 0.016263 0.000000 0.003435 0.006869 0.010304 0.013738 0.017173 0.000000 0.003610 0.007220 0.010830 0.014440 0.018049 0.000000 0.003778 0.007557 0.011335 0.015114 0.018892 0.000000 0.003940 0.007881 0.011821 0.015762 0.019702 0.000000 0.004096 0.008191 0.012287 0.016382 0.020478 0.000000 0.004244 0.008488 0.012732 0.016976 0.021220 0.000000 0.004386 0.008772 0.013158 0.017543 0.021929 0.000000 0.004521 0.009042 0.013563 0.018084 0.022605 0.000000 0.004649 0.009299 0.013948 0.018597 0.023247 0.000000 0.004771 0.009542 0.014313 0.019084 0.023855 0.000000 0.004886 0.009772 0.014658 0.019544 0.024430 0.000000 0.004994 0.009988 0.014983 0.019977 0.024971 0.000000 0.005096 0.010191 0.015287 0.020383 0.025479 0.000000 0.005191 0.010381 0.015572 0.020762 0.025953 0.000000 0.005279 0.010557 0.015836 0.021115 0.026393 0.000000 0.005360 0.010720 0.016080 0.021440 0.026800 0.000000 0.005435 0.010870 0.016304 0.021739 0.027174 0.000000 0.005503 0.011006 0.016508 0.022011 0.027514 0.000000 0.005564 0.011128 0.016692 0.022256 0.027820 0.000000 0.005619 0.011237 0.016856 0.022475 0.028093 0.000000 0.005667 0.011333 0.017000 0.022666 0.028333 0.000000 0.005708 0.011416 0.017123 0.022831 0.028539 0.000000 0.005742 0.011484 0.017227 0.022969 0.028711 0.000000 0.005770 0.011540 0.017310 0.023080 0.028850 0.000000 0.005791 0.011582 0.017373 0.023164 0.028955 0.000000 0.005805 0.011611 0.017416 0.023222 0.029027 0.000000 0.005813 0.011626 0.017439 0.023252 0.029065 0.000000 0.005814 0.011628 0.017442 0.023256 0.029070 0.000000 0.005808 0.011617 0.017425 0.023233 0.029042 0.000000 0.005796 0.011592 0.017388 0.023183 0.028979 0.000000 0.005777 0.011553 0.017330 0.023107 0.028884 0.000000 0.005751 0.011502 0.017253 0.023004 0.028754 0.000000 0.005718 0.011437 0.017155 0.022873 0.028592 0.000000 0.005679 0.011358 0.017037 0.022716 0.028395 0.000000 0.005633 0.011266 0.016899 0.022533 0.028166 0.000000 0.005581 0.011161 0.016742 0.022322 0.027903
0.139009 0.212308 0.265557 0.304631 0.329395 0.154785 0.228628 0.279428 0.315137 0.336648 0.162721 0.237611 0.287491 0.321688 0.342006 0.166860 0.242417 0.291932 0.325474 0.345277 0.168899 0.244764 0.294076 0.327272 0.346796 0.169659 0.245540 0.294645 0.327585 0.346907 0.169570 0.245230 0.294067 0.326754 0.345892 0.168878 0.244124 0.292615 0.325023 0.343973 0.167737 0.242408 0.290479 0.322572 0.341319 0.166248 0.240213 0.287794 0.319537 0.338065 0.164483 0.237633 0.284665 0.316024 0.334317 0.162494 0.234739 0.281171 0.312117 0.330161 0.160322 0.231588 0.277377 0.307883 0.325664 0.158000 0.228224 0.273332 0.303377 0.320883 0.155553 0.224683 0.269079 0.298643 0.315866 0.153003 0.220994 0.264653 0.293721 0.310651 0.150367 0.217183 0.260082 0.288640 0.305271 0.147659 0.213271 0.255392 0.283429 0.299754 0.144894 0.209275 0.250603 0.278109 0.294124 0.142080 0.205211 0.245733 0.272701 0.288400 0.139227 0.201091 0.240797 0.267221 0.282602 0.136344 0.196927 0.235810 0.261684 0.276744 0.133436 0.192728 0.230781 0.256102 0.270840 0.130510 0.188504 0.225723 0.250487 0.264901 0.127572 0.184262 0.220643 0.244849 0.258937 0.124626 0.180008 0.215549 0.239196 0.252958 0.121675 0.175748 0.210449 0.233536 0.246972 0.118724 0.171488 0.205348 0.227876 0.240986 0.115776 0.167232 0.200252 0.222221 0.235005 0.112833 0.162983 0.195165 0.216576 0.229036 0.109898 0.158746 0.190093 0.210947 0.223083 0.106974 0.154524 0.185037 0.205337 0.217150 0.104061 0.150318 0.180002 0.199749 0.211241 0.101161 0.146132 0.174989 0.194187 0.205358 0.098276 0.141966 0.170001 0.188651 0.199503 0.095407 0.137822 0.165038 0.183143 0.193678 0.092553 0.133700 0.160102 0.177664 0.187883 0.089714 0.129600 0.155191 0.172212 0.182116 0.086890 0.125520 0.150303 0.166786 0.176375 0.084079 0.121457 0.145435 0.161379 0.170654 0.081278 0.117407 0.140579 0.155984 0.164944 0.078480 0.113359 0.135724 0.150587 0.159228 0.075677 0.109300 0.130850 0.145164 0.153482 0.072852 0.105203 0.125922 0.139674 0.147657 0.069976 0.101021 0.120879 0.134040 0.141668 0.066996 0.096666 0.115600 0.128114 0.135346 0.063799 0.091951 0.109829 0.121578 0.128325 0.060127 0.086432 0.102945 0.113649 0.119706 0.055264 0.078852 0.093164 0.102084 0.106933 0.046435 0.064187 0.073633 0.078896 0.081519 