Variables="X","Y","Z","GAMMA"
ZONE T="WING" i=6,j=51,k=1, ZONETYPE=Ordered
DATAPACKING=BLOCK
VARLOCATION=([4]=CELLCENTERED)
-0.000000 0.200000 0.400000 0.600000 0.800000 1.000000 -0.040000 0.160000 0.360000 0.560000 0.760000 0.960000 -0.080000 0.120000 0.320000 0.520000 0.720000 0.920000 -0.120000 0.080000 0.280000 0.480000 0.680000 0.880000 -0.160000 0.040000 0.240000 0.440000 0.640000 0.840000 -0.200000 -0.000000 0.200000 0.400000 0.600000 0.800000 -0.240000 -0.040000 0.160000 0.360000 0.560000 0.760000 -0.280000 -0.080000 0.120000 0.320000 0.520000 0.720000 -0.320000 -0.120000 0.080000 0.280000 0.480000 0.680000 -0.360000 -0.160000 0.040000 0.240000 0.440000 0.640000 -0.400000 -0.200000 -0.000000 0.200000 0.400000 0.600000 -0.440000 -0.240000 -0.040000 0.160000 0.360000 0.560000 -0.480000 -0.280000 -0.080000 0.120000 0.320000 0.520000 -0.520000 -0.320000 -0.120000 0.080000 0.280000 0.480000 -0.560000 -0.360000 -0.160000 0.040000 0.240000 0.440000 -0.600000 -0.400000 -0.200000 -0.000000 0.200000 0.400000 -0.640000 -0.440000 -0.240000 -0.040000 0.160000 0.360000 -0.680000 -0.480000 -0.280000 -0.080000 0.120000 0.320000 -0.720000 -0.520000 -0.320000 -0.120000 0.080000 0.280000 -0.760000 -0.560000 -0.360000 -0.160000 0.040000 0.240000 -0.800000 -0.600000 -0.400000 -0.200000 -0.000000 0.200000 -0.840000 -0.640000 -0.440000 -0.240000 -0.040000 0.160000 -0.880000 -0.680000 -0.480000 -0.280000 -0.080000 0.120000 -0.920000 -0.720000 -0.520000 -0.320000 -0.120000 0.080000 -0.960000 -0.760000 -0.560000 -0.360000 -0.160000 0.040000 -1.000000 -0.800000 -0.600000 -0.400000 -0.200000 -0.000000 -1.040000 -0.840000 -0.640000 -0.440000 -0.240000 -0.040000 -1.080000 -0.880000 -0.680000 -0.480000 -0.280000 -0.080000 -1.120000 -0.920000 -0.720000 -0.520000 -0.320000 -0.120000 -1.160000 -0.960000 -0.760000 -0.560000 -0.360000 -0.160000 -1.200000 -1.000000 -0.800000 -0.600000 -0.400000 -0.200000 -1.240000 -1.040000 -0.840000 -0.640000 -0.440000 -0.240000 -1.280000 -1.080000 -0.880000 -0.680000 -0.480000 -0.280000 -1.320000 -1.120000 -0.920000 -0.720000 -0.520000 -0.320000 -1.360000 -1.160000 -0.960000 -0.760000 -0.560000 -0.360000 -1.400000 -1.200000 -1.000000 -0.800000 -0.600000 -0.400000 -1.440000 -1.240000 -1.040000 -0.840000 -0.640000 -0.440000 -1.480000 -1.280000 -1.080000 -0.880000 -0.680000 -0.480000 -1.520000 -1.320000 -1.120000 -0.920000 -0.720000 -0.520000 -1.560000 -1.360000 -1.160000 -0.960000 -0.760000 -0.560000 -1.600000 -1.400000 -1.200000 -1.000000 -0.800000 -0.600000 -1.640000 -1.440000 -1.240000 -1.040000 -0.840000 -0.640000 -1.680000 -1.480000 -1.280000 -1.080000 -0.880000 -0.680000 -1.720000 -1.520000 -1.320000 -1.120000 -0.920000 -0.720000 -1.760000 -1.560000 -1.360000 -1.160000 -0.960000 -0.760000 -1.800000 -1.600000 -1.400000 -1.200000 -1.000000 -0.800000 -1.840000 -1.640000 -1.440000 -1.240000 -1.040000 -0.840000 -1.880000 -1.680000 -1.480000 -1.280000 -1.080000 -0.880000 -1.920000 -1.720000 -1.520000 -1.320000 -1.120000 -0.920000 -1.960000 -1.760000 -1.560000 -1.360000 -1.160000 -0.960000 -2.000000 -1.800000 -1.600000 -1.400000 -1.200000 -1.000000
0.000000 0.000000 0.000000 0.000000 0.000000 0.000000 0.040000 0.040000 0.040000 0.040000 0.040000 0.040000 0.080000 0.080000 0.080000 0.080000 0.080000 0.080000 0.120000 0.120000 0.120000 0.120000 0.120000 0.120000 0.160000 0.160000 0.160000 0.160000 0.160000 0.160000 0.200000 0.200000 0.200000 0.200000 0.200000 0.200000 0.240000 0.240000 0.240000 0.240000 0.240000 0.240000 0.280000 0.280000 0.280000 0.280000 0.280000 0.280000 0.320000 0.320000 0.320000 0.320000 0.320000 0.320000 0.360000 0.360000 0.360000 0.360000 0.360000 0.360000 0.400000 0.400000 0.400000 0.400000 0.400000 0.400000 0.440000 0.440000 0.440000 0.440000 0.440000 0.440000 0.480000 0.480000 0.480000 0.480000 0.480000 0.480000 0.520000 0.520000 0.520000 0.520000 0.520000 0.520000 0.560000 0.560000 0.560000 0.560000 0.560000 0.560000 0.600000 0.600000 0.600000 0.600000 0.600000 0.600000 0.640000 0.640000 0.640000 0.640000 0.640000 0.640000 0.680000 0.680000 0.680000 0.680000 0.680000 0.680000 0.720000 0.720000 0.720000 0.720000 0.720000 0.720000 0.760000 0.760000 0.760000 0.760000 0.760000 0.760000 0.800000 0.800000 0.800000 0.800000 0.800000 0.800000 0.840000 0.840000 0.840000 0.840000 0.840000 0.840000 0.880000 0.880000 0.880000 0.880000 0.880000 0.880000 0.920000 0.920000 0.920000 0.920000 0.920000 0.920000 0.960000 0.960000 0.960000 0.960000 0.960000 0.960000 1.000000 1.000000 1.000000 1.000000 1.000000 1.000000 1.040000 1.040000 1.040000 1.040000 1.040000 1.040000 1.080000 1.080000 1.080000 1.080000 1.080000 1.080000 1.120000 1.120000 1.120000 1.120000 1.120000 1.120000 1.160000 1.160000 1.160000 1.160000 1.160000 1.160000 1.200000 1.200000 1.200000 1.200000 1.200000 1.200000 1.240000 1.240000 1.240000 1.240000 1.240000 1.240000 1.280000 1.280000 1.280000 1.280000 1.280000 1.280000 1.320000 1.320000 1.320000 1.320000 1.320000 1.320000 1.360000 1.360000 1.360000 1.360000 1.360000 1.360000 1.400000 1.400000 1.400000 1.400000 1.400000 1.400000 1.440000 1.440000 1.440000 1.440000 1.440000 1.440000 1.480000 1.480000 1.480000 1.480000 1.480000 1.480000 1.520000 1.520000 1.520000 1.520000 1.520000 1.520000 1.560000 1.560000 1.560000 1.560000 1.560000 1.560000 1.600000 1.600000 1.600000 1.600000 1.600000 1.600000 1.640000 1.640000 1.640000 1.640000 1.640000 1.640000 1.680000 1.680000 1.680000 1.680000 1.680000 1.680000 1.720000 1.720000 1.720000 1.720000 1.720000 1.720000 1.760000 1.760000 1.760000 1.760000 1.760000 1.760000 1.800000 1.800000 1.800000 1.800000 1.800000 1.800000 1.840000 1.840000 1.840000 1.840000 1.840000 1.840000 1.880000 1.880000 1.880000 1.880000 1.880000 1.880000 1.920000 1.920000 1.920000 1.920000 1.920000 1.920000 1.960000 1.960000 1.960000 1.960000 1.960000 1.960000 2.000000 2.000000 2.000000 2.000000 2.000000 2.000000
0.000000 0.000000 0.000000 0.000000 0.000000 0.000000 0.000000 0.000000 0.000000 0.000000 0.000000 0.000000 0.000000 0.000000 0.000000 0.000000 0.000000 0.000000 0.000000 0.000000 0.000000 0.000000 0.000000 0.000000 0.000000 0.000000 0.000000 0.000000 0.000000 0.000000 0.000000 0.000000 0.000000 0.000000 0.000000 0.000000 0.000000 0.000000 0.000000 0.000000 0.000000 0.000000 0.000000 0.000000 0.000000 0.000000 0.000000 0.000000 0.000000 0.000000 0.000000 0.000000 0.000000 0.000000 0.000000 0.000000 0.000000 0.000000 0.000000 0.000000 0.000000 0.000000 0.000000 0.000000 0.000000 0.000000 0.000000 0.000000 0.000000 0.000000 0.000000 0.000000 0.000000 0.000000 0.000000 0.000000 0.000000 0.000000 0.000000 0.000000 0.000000 0.000000 0.000000 0.000000 0.000000 0.000000 0.000000 0.000000 0.000000 0.000000 0.000000 0.000000 0.000000 0.000000 0.000000 0.000000 0.000000 0.000000 0.000000 0.000000 0.000000 0.000000 0.000000 0.000000 0.000000 0.000000 0.000000 0.000000 0.000000 0.000000 0.000000 0.000000 0.000000 0.000000 0.000000 0.000000 0.000000 0.000000 0.000000 0.000000 0.000000 0.000000 0.000000 0.000000 0.000000 0.000000 0.000000 0.000000 0.000000 0.000000 0.000000 0.000000 0.000000 0.000000 0.000000 0.000000 0.000000 0.000000 0.000000 0.000000 0.000000 0.000000 0.000000 0.000000 0.000000 0.000000 0.000000 0.000000 0.000000 0.000000 0.000000 0.000000 0.000000 0.000000 0.000000 0.000000 0.000000 0.000000 0.000000 0.000000 0.000000 0.000000 0.000000 0.000000 0.000000 0.000000 0.000000 0.000000 0.000000 0.000000 0.000000 0.000000 0.000000 0.000000 0.000000 0.000000 0.000000 0.000000 0.000000 0.000000 0.000000 0.000000 0.000000 0.000000 0.000000 0.000000 0.000000 0.000000 0.000000 0.000000 0.000000 0.000000 0.000000 0.000000 0.000000 0.000000 0.000000 0.000000 0.000000 0.000000 0.000000 0.000000 0.000000 0.000000 0.000000 0.000000 0.000000 0.000000 0.000000 0.000000 0.000000 0.000000 0.000000 0.000000 0.000000 0.000000 0.000000 0.000000 0.000000 0.000000 0.000000 0.000000 0.000000 0.000000 0.000000 0.000000 0.000000 0.000000 0.000000 0.000000 0.000000 0.000000 0.000000 0.000000 0.000000 0.000000 0.000000 0.000000 0.000000 0.000000 0.000000 0.000000 0.000000 0.000000 0.000000 0.000000 0.000000 0.000000 0.000000 0.000000 0.000000 0.000000 0.000000 0.000000 0.000000 0.000000 0.000000 0.000000 0.000000 0.000000 0.000000 0.000000 0.000000 0.000000 0.000000 0.000000 0.000000 0.000000 0.000000 0.000000 0.000000 0.000000 0.000000 0.000000 0.000000 0.000000 0.000000 0.000000 0.000000 0.000000 0.000000 0.000000 0.000000 0.000000 0.000000 0.000000 0.000000 0.000000 0.000000 0.000000 0.000000 0.000000 0.000000 0.000000 0.000000 0.000000 0.000000 0.000000 0.000000 0.000000 0.000000 0.000000 0.000000 0.000000 0.000000 0.000000
0.240037 0.309743 0.344885 0.363527 0.371781 0.227139 0.303258 0.341156 0.361361 0.370564 0.212750 0.294897 0.336123 0.358253 0.368585 0.200775 0.286177 0.330536 0.354604 0.366060 0.191350 0.277607 0.324618 0.350539 0.363081 0.183894 0.269485 0.318511 0.346136 0.359717 0.177871 0.261992 0.312351 0.341473 0.356031 0.172887 0.255192 0.306255 0.336625 0.352081 0.168663 0.249064 0.300319 0.331663 0.347921 0.165005 0.243545 0.294607 0.326650 0.343601 0.161774 0.238553 0.289157 0.321640 0.339166 0.158870 0.234006 0.283981 0.316680 0.334659 0.156219 0.229829 0.279074 0.311801 0.330113 0.153764 0.225958 0.274420 0.307026 0.325560 0.151464 0.222335 0.269996 0.302366 0.321021 0.149283 0.218914 0.265772 0.297825 0.316514 0.147195 0.215654 0.261722 0.293399 0.312050 0.145177 0.212523 0.257817 0.289079 0.307634 0.143211 0.209489 0.254030 0.284854 0.303265 0.141279 0.206528 0.250337 0.280707 0.298941 0.139370 0.203618 0.246713 0.276624 0.294653 0.137470 0.200739 0.243137 0.272585 0.290393 0.135568 0.197872 0.239587 0.268574 0.286146 0.133656 0.195003 0.236045 0.264573 0.281901 0.131722 0.192115 0.232491 0.260562 0.277641 0.129758 0.189193 0.228909 0.256525 0.273350 0.127755 0.186225 0.225279 0.252442 0.269012 0.125705 0.183195 0.221586 0.248296 0.264609 0.123600 0.180091 0.217811 0.244066 0.260121 0.121430 0.176898 0.213938 0.239734 0.255529 0.119186 0.173603 0.209947 0.235279 0.250811 0.116859 0.170189 0.205821 0.230679 0.245947 0.114439 0.166641 0.201537 0.225911 0.240910 0.111915 0.162942 0.197075 0.220951 0.235676 0.109275 0.159072 0.192411 0.215770 0.230214 0.106505 0.155011 0.187516 0.210338 0.224493 0.103592 0.150735 0.182362 0.204621 0.218475 0.100517 0.146217 0.176913 0.198577 0.212118 0.097261 0.141425 0.171130 0.192161 0.205372 0.093800 0.136323 0.164965 0.185318 0.198178 0.090105 0.130866 0.158361 0.177981 0.190464 0.086141 0.124997 0.151248 0.170067 0.182141 0.081860 0.118645 0.143535 0.161473 0.173095 0.077201 0.111718 0.135108 0.152063 0.163177 0.072076 0.104085 0.125807 0.141654 0.152186 0.066360 0.095560 0.115405 0.129983 0.139830 0.059849 0.085851 0.103552 0.116649 0.125666 0.052197 0.074462 0.089653 0.100979 0.108946 0.042690 0.060399 0.072524 0.081639 0.088200 0.029341 0.040975 0.048995 0.055075 0.059551 