Variables="X","Y","Z","GAMMA"
ZONE T="WING" i=6,j=51,k=1, ZONETYPE=Ordered
DATAPACKING=BLOCK
VARLOCATION=([4]=CELLCENTERED)
0.000000 0.200000 0.400000 0.600000 0.800000 1.000000 0.000245 0.200147 0.400049 0.599951 0.799853 0.999755 0.000982 0.200589 0.400196 0.599804 0.799411 0.999018 0.002208 0.201325 0.400442 0.599558 0.798675 0.997792 0.003923 0.202354 0.400785 0.599215 0.797646 0.996077 0.006125 0.203675 0.401225 0.598775 0.796325 0.993875 0.008812 0.205287 0.401762 0.598238 0.794713 0.991188 0.011981 0.207188 0.402396 0.597604 0.792812 0.988019 0.015629 0.209377 0.403126 0.596874 0.790623 0.984371 0.019752 0.211851 0.403950 0.596050 0.788149 0.980248 0.024346 0.214608 0.404869 0.595131 0.785392 0.975654 0.029407 0.217644 0.405881 0.594119 0.782356 0.970593 0.034930 0.220958 0.406986 0.593014 0.779042 0.965070 0.040908 0.224545 0.408182 0.591818 0.775455 0.959092 0.047336 0.228402 0.409467 0.590533 0.771598 0.952664 0.054208 0.232525 0.410842 0.589158 0.767475 0.945792 0.061516 0.236909 0.412303 0.587697 0.763091 0.938484 0.069253 0.241552 0.413851 0.586149 0.758448 0.930747 0.077411 0.246447 0.415482 0.584518 0.753553 0.922589 0.085982 0.251589 0.417196 0.582804 0.748411 0.914018 0.094958 0.256975 0.418992 0.581008 0.743025 0.905042 0.104329 0.262597 0.420866 0.579134 0.737403 0.895671 0.114085 0.268451 0.422817 0.577183 0.731549 0.885915 0.124216 0.274530 0.424843 0.575157 0.725470 0.875784 0.134713 0.280828 0.426943 0.573057 0.719172 0.865287 0.145564 0.287338 0.429113 0.570887 0.712662 0.854436 0.156757 0.294054 0.431351 0.568649 0.705946 0.843243 0.168282 0.300969 0.433656 0.566344 0.699031 0.831718 0.180126 0.308076 0.436025 0.563975 0.691924 0.819874 0.192276 0.315365 0.438455 0.561545 0.684635 0.807724 0.204719 0.322831 0.440944 0.559056 0.677169 0.795281 0.217441 0.330465 0.443488 0.556512 0.669535 0.782559 0.230429 0.338257 0.446086 0.553914 0.661743 0.769571 0.243666 0.346200 0.448733 0.551267 0.653800 0.756334 0.257139 0.354283 0.451428 0.548572 0.645717 0.742861 0.270829 0.362498 0.454166 0.545834 0.637502 0.729171 0.284720 0.370832 0.456944 0.543056 0.629168 0.715280 0.298793 0.379276 0.459759 0.540241 0.620724 0.701207 0.313025 0.387815 0.462605 0.537395 0.612185 0.686975 0.327395 0.396437 0.465479 0.534521 0.603563 0.672605 0.341875 0.405125 0.468375 0.531625 0.594875 0.658125 0.356432 0.413859 0.471286 0.528714 0.586141 0.643568 0.371026 0.422615 0.474205 0.525795 0.577385 0.628974 0.385601 0.431361 0.477120 0.522880 0.568639 0.614399 0.400080 0.440048 0.480016 0.519984 0.559952 0.599920 0.414342 0.448605 0.482868 0.517132 0.551395 0.585658 0.428184 0.456911 0.485637 0.514363 0.543089 0.571816 0.441238 0.464743 0.488248 0.511752 0.535257 0.558762 0.452769 0.471662 0.490554 0.509446 0.528338 0.547231 0.461329 0.476798 0.492266 0.507734 0.523202 0.538671 0.464645 0.478787 0.492929 0.507071 0.521213 0.535355
-0.000000 -0.000000 -0.000000 -0.000000 -0.000000 -0.000000 0.165289 0.165289 0.165289 0.165289 0.165289 0.165289 0.330414 0.330414 0.330414 0.330414 0.330414 0.330414 0.495214 0.495214 0.495214 0.495214 0.495214 0.495214 0.659524 0.659524 0.659524 0.659524 0.659524 0.659524 0.823184 0.823184 0.823184 0.823184 0.823184 0.823184 0.986032 0.986032 0.986032 0.986032 0.986032 0.986032 1.147906 1.147906 1.147906 1.147906 1.147906 1.147906 1.308648 1.308648 1.308648 1.308648 1.308648 1.308648 1.468098 1.468098 1.468098 1.468098 1.468098 1.468098 1.626099 1.626099 1.626099 1.626099 1.626099 1.626099 1.782496 1.782496 1.782496 1.782496 1.782496 1.782496 1.937133 1.937133 1.937133 1.937133 1.937133 1.937133 2.089859 2.089859 2.089859 2.089859 2.089859 2.089859 2.240522 2.240522 2.240522 2.240522 2.240522 2.240522 2.388974 2.388974 2.388974 2.388974 2.388974 2.388974 2.535069 2.535069 2.535069 2.535069 2.535069 2.535069 2.678661 2.678661 2.678661 2.678661 2.678661 2.678661 2.819610 2.819610 2.819610 2.819610 2.819610 2.819610 2.957777 2.957777 2.957777 2.957777 2.957777 2.957777 3.093025 3.093025 3.093025 3.093025 3.093025 3.093025 3.225220 3.225220 3.225220 3.225220 3.225220 3.225220 3.354232 3.354232 3.354232 3.354232 3.354232 3.354232 3.479934 3.479934 3.479934 3.479934 3.479934 3.479934 3.602202 3.602202 3.602202 3.602202 3.602202 3.602202 3.720914 3.720914 3.720914 3.720914 3.720914 3.720914 3.835955 3.835955 3.835955 3.835955 3.835955 3.835955 3.947210 3.947210 3.947210 3.947210 3.947210 3.947210 4.054570 4.054570 4.054570 4.054570 4.054570 4.054570 4.157928 4.157928 4.157928 4.157928 4.157928 4.157928 4.257183 4.257183 4.257183 4.257183 4.257183 4.257183 4.352237 4.352237 4.352237 4.352237 4.352237 4.352237 4.442995 4.442995 4.442995 4.442995 4.442995 4.442995 4.529369 4.529369 4.529369 4.529369 4.529369 4.529369 4.611273 4.611273 4.611273 4.611273 4.611273 4.611273 4.688626 4.688626 4.688626 4.688626 4.688626 4.688626 4.761352 4.761352 4.761352 4.761352 4.761352 4.761352 4.829379 4.829379 4.829379 4.829379 4.829379 4.829379 4.892640 4.892640 4.892640 4.892640 4.892640 4.892640 4.951072 4.951072 4.951072 4.951072 4.951072 4.951072 5.004619 5.004619 5.004619 5.004619 5.004619 5.004619 5.053226 5.053226 5.053226 5.053226 5.053226 5.053226 5.096847 5.096847 5.096847 5.096847 5.096847 5.096847 5.135438 5.135438 5.135438 5.135438 5.135438 5.135438 5.168960 5.168960 5.168960 5.168960 5.168960 5.168960 5.197382 5.197382 5.197382 5.197382 5.197382 5.197382 5.220674 5.220674 5.220674 5.220674 5.220674 5.220674 5.238814 5.238814 5.238814 5.238814 5.238814 5.238814 5.251784 5.251784 5.251784 5.251784 5.251784 5.251784 5.259571 5.259571 5.259571 5.259571 5.259571 5.259571 5.262168 5.262168 5.262168 5.262168 5.262168 5.262168
0.000000 0.000000 0.000000 0.000000 0.000000 0.000000 0.000000 0.000000 0.000000 0.000000 0.000000 0.000000 0.000000 0.000000 0.000000 0.000000 0.000000 0.000000 0.000000 0.000000 0.000000 0.000000 0.000000 0.000000 0.000000 0.000000 0.000000 0.000000 0.000000 0.000000 0.000000 0.000000 0.000000 0.000000 0.000000 0.000000 0.000000 0.000000 0.000000 0.000000 0.000000 0.000000 0.000000 0.000000 0.000000 0.000000 0.000000 0.000000 0.000000 0.000000 0.000000 0.000000 0.000000 0.000000 0.000000 0.000000 0.000000 0.000000 0.000000 0.000000 0.000000 0.000000 0.000000 0.000000 0.000000 0.000000 0.000000 0.000000 0.000000 0.000000 0.000000 0.000000 0.000000 0.000000 0.000000 0.000000 0.000000 0.000000 0.000000 0.000000 0.000000 0.000000 0.000000 0.000000 0.000000 0.000000 0.000000 0.000000 0.000000 0.000000 0.000000 0.000000 0.000000 0.000000 0.000000 0.000000 0.000000 0.000000 0.000000 0.000000 0.000000 0.000000 0.000000 0.000000 0.000000 0.000000 0.000000 0.000000 0.000000 0.000000 0.000000 0.000000 0.000000 0.000000 0.000000 0.000000 0.000000 0.000000 0.000000 0.000000 0.000000 0.000000 0.000000 0.000000 0.000000 0.000000 0.000000 0.000000 0.000000 0.000000 0.000000 0.000000 0.000000 0.000000 0.000000 0.000000 0.000000 0.000000 0.000000 0.000000 0.000000 0.000000 0.000000 0.000000 0.000000 0.000000 0.000000 0.000000 0.000000 0.000000 0.000000 0.000000 0.000000 0.000000 0.000000 0.000000 0.000000 0.000000 0.000000 0.000000 0.000000 0.000000 0.000000 0.000000 0.000000 0.000000 0.000000 0.000000 0.000000 0.000000 0.000000 0.000000 0.000000 0.000000 0.000000 0.000000 0.000000 0.000000 0.000000 0.000000 0.000000 0.000000 0.000000 0.000000 0.000000 0.000000 0.000000 0.000000 0.000000 0.000000 0.000000 0.000000 0.000000 0.000000 0.000000 0.000000 0.000000 0.000000 0.000000 0.000000 0.000000 0.000000 0.000000 0.000000 0.000000 0.000000 0.000000 0.000000 0.000000 0.000000 0.000000 0.000000 0.000000 0.000000 0.000000 0.000000 0.000000 0.000000 0.000000 0.000000 0.000000 0.000000 0.000000 0.000000 0.000000 0.000000 0.000000 0.000000 0.000000 0.000000 0.000000 0.000000 0.000000 0.000000 0.000000 0.000000 0.000000 0.000000 0.000000 0.000000 0.000000 0.000000 0.000000 0.000000 0.000000 0.000000 0.000000 0.000000 0.000000 0.000000 0.000000 0.000000 0.000000 0.000000 0.000000 0.000000 0.000000 0.000000 0.000000 0.000000 0.000000 0.000000 0.000000 0.000000 0.000000 0.000000 0.000000 0.000000 0.000000 0.000000 0.000000 0.000000 0.000000 0.000000 0.000000 0.000000 0.000000 0.000000 0.000000 0.000000 0.000000 0.000000 0.000000 0.000000 0.000000 0.000000 0.000000 0.000000 0.000000 0.000000 0.000000 0.000000 0.000000 0.000000 0.000000 0.000000 0.000000 0.000000 0.000000 0.000000 0.000000 0.000000 0.000000 0.000000 0.000000 0.000000
0.230785 0.332792 0.398036 0.441319 0.466450 0.230559 0.332467 0.397646 0.440885 0.465991 0.230109 0.331816 0.396866 0.440019 0.465075 0.229434 0.330841 0.395697 0.438721 0.463701 0.228535 0.329542 0.394140 0.436992 0.461871 0.227413 0.327921 0.392198 0.434835 0.459588 0.226069 0.325979 0.389871 0.432250 0.456853 0.224505 0.323719 0.387162 0.429242 0.453669 0.222722 0.321142 0.384074 0.425812 0.450039 0.220721 0.318251 0.380610 0.421964 0.445968 0.218506 0.315050 0.376773 0.417703 0.441458 0.216078 0.311541 0.372568 0.413033 0.436515 0.213439 0.307729 0.367999 0.407957 0.431144 0.210593 0.303616 0.363070 0.402482 0.425350 0.207542 0.299207 0.357786 0.396613 0.419139 0.204290 0.294507 0.352153 0.390356 0.412517 0.200839 0.289521 0.346176 0.383718 0.405490 0.197194 0.284253 0.339862 0.376704 0.398067 0.193357 0.278709 0.333217 0.369322 0.390255 0.189334 0.272894 0.326248 0.361581 0.382061 0.185128 0.266816 0.318962 0.353487 0.373494 0.180744 0.260480 0.311366 0.345049 0.364563 0.176186 0.253892 0.303469 0.336275 0.355277 0.171459 0.247060 0.295279 0.327176 0.345646 0.166568 0.239990 0.286804 0.317760 0.335679 0.161518 0.232691 0.278053 0.308037 0.325387 0.156315 0.225170 0.269035 0.298017 0.314780 0.150965 0.217435 0.259761 0.287712 0.303871 0.145472 0.209495 0.250240 0.277131 0.292670 0.139844 0.201357 0.240482 0.266287 0.281189 0.134086 0.193033 0.230498 0.255191 0.269441 0.128205 0.184529 0.220299 0.243855 0.257439 0.122208 0.175857 0.209897 0.232292 0.245195 0.116102 0.167027 0.199304 0.220515 0.232724 0.109894 0.158049 0.188532 0.208538 0.220040 0.103592 0.148934 0.177594 0.196374 0.207157 0.097205 0.139694 0.166503 0.184039 0.194091 0.090741 0.130342 0.155275 0.171547 0.180858 0.084211 0.120890 0.143923 0.158914 0.167474 0.077623 0.111354 0.132465 0.146158 0.153957 0.070991 0.101749 0.120918 0.133296 0.140324 0.064328 0.092094 0.109299 0.120345 0.126595 0.057651 0.082410 0.097629 0.107325 0.112789 0.050984 0.072722 0.085928 0.094254 0.098928 0.044355 0.063060 0.074215 0.081148 0.085033 0.037812 0.053455 0.062499 0.068020 0.071130 0.031421 0.043911 0.050763 0.054881 0.057247 0.025244 0.034319 0.038952 0.041751 0.043433 0.019053 0.024347 0.027045 0.028741 0.029813 0.011671 0.014296 0.015717 0.016635 0.017229 