Variables="X","Y","Z","GAMMA"
ZONE T="WING" i=6,j=51,k=1, ZONETYPE=Ordered
DATAPACKING=BLOCK
VARLOCATION=([4]=CELLCENTERED)
0.000000 0.200000 0.400000 0.600000 0.800000 1.000000 0.000000 0.198400 0.396800 0.595200 0.793600 0.992000 0.000000 0.196800 0.393600 0.590400 0.787200 0.984000 0.000000 0.195200 0.390400 0.585600 0.780800 0.976000 0.000000 0.193600 0.387200 0.580800 0.774400 0.968000 0.000000 0.192000 0.384000 0.576000 0.768000 0.960000 0.000000 0.190400 0.380800 0.571200 0.761600 0.952000 0.000000 0.188800 0.377600 0.566400 0.755200 0.944000 0.000000 0.187200 0.374400 0.561600 0.748800 0.936000 0.000000 0.185600 0.371200 0.556800 0.742400 0.928000 0.000000 0.184000 0.368000 0.552000 0.736000 0.920000 0.000000 0.182400 0.364800 0.547200 0.729600 0.912000 0.000000 0.180800 0.361600 0.542400 0.723200 0.904000 0.000000 0.179200 0.358400 0.537600 0.716800 0.896000 0.000000 0.177600 0.355200 0.532800 0.710400 0.888000 0.000000 0.176000 0.352000 0.528000 0.704000 0.880000 0.000000 0.174400 0.348800 0.523200 0.697600 0.872000 0.000000 0.172800 0.345600 0.518400 0.691200 0.864000 0.000000 0.171200 0.342400 0.513600 0.684800 0.856000 0.000000 0.169600 0.339200 0.508800 0.678400 0.848000 0.000000 0.168000 0.336000 0.504000 0.672000 0.840000 0.000000 0.166400 0.332800 0.499200 0.665600 0.832000 0.000000 0.164800 0.329600 0.494400 0.659200 0.824000 0.000000 0.163200 0.326400 0.489600 0.652800 0.816000 0.000000 0.161600 0.323200 0.484800 0.646400 0.808000 0.000000 0.160000 0.320000 0.480000 0.640000 0.800000 0.000000 0.158400 0.316800 0.475200 0.633600 0.792000 0.000000 0.156800 0.313600 0.470400 0.627200 0.784000 0.000000 0.155200 0.310400 0.465600 0.620800 0.776000 0.000000 0.153600 0.307200 0.460800 0.614400 0.768000 0.000000 0.152000 0.304000 0.456000 0.608000 0.760000 0.000000 0.150400 0.300800 0.451200 0.601600 0.752000 0.000000 0.148800 0.297600 0.446400 0.595200 0.744000 0.000000 0.147200 0.294400 0.441600 0.588800 0.736000 0.000000 0.145600 0.291200 0.436800 0.582400 0.728000 0.000000 0.144000 0.288000 0.432000 0.576000 0.720000 0.000000 0.142400 0.284800 0.427200 0.569600 0.712000 0.000000 0.140800 0.281600 0.422400 0.563200 0.704000 0.000000 0.139200 0.278400 0.417600 0.556800 0.696000 0.000000 0.137600 0.275200 0.412800 0.550400 0.688000 0.000000 0.136000 0.272000 0.408000 0.544000 0.680000 0.000000 0.134400 0.268800 0.403200 0.537600 0.672000 0.000000 0.132800 0.265600 0.398400 0.531200 0.664000 0.000000 0.131200 0.262400 0.393600 0.524800 0.656000 0.000000 0.129600 0.259200 0.388800 0.518400 0.648000 0.000000 0.128000 0.256000 0.384000 0.512000 0.640000 0.000000 0.126400 0.252800 0.379200 0.505600 0.632000 0.000000 0.124800 0.249600 0.374400 0.499200 0.624000 0.000000 0.123200 0.246400 0.369600 0.492800 0.616000 0.000000 0.121600 0.243200 0.364800 0.486400 0.608000 0.000000 0.120000 0.240000 0.360000 0.480000 0.600000
0.000000 0.000000 0.000000 0.000000 0.000000 0.000000 0.058240 0.058240 0.058240 0.058240 0.058240 0.058240 0.116480 0.116480 0.116480 0.116480 0.116480 0.116480 0.174720 0.174720 0.174720 0.174720 0.174720 0.174720 0.232960 0.232960 0.232960 0.232960 0.232960 0.232960 0.291200 0.291200 0.291200 0.291200 0.291200 0.291200 0.349440 0.349440 0.349440 0.349440 0.349440 0.349440 0.407680 0.407680 0.407680 0.407680 0.407680 0.407680 0.465920 0.465920 0.465920 0.465920 0.465920 0.465920 0.524160 0.524160 0.524160 0.524160 0.524160 0.524160 0.582400 0.582400 0.582400 0.582400 0.582400 0.582400 0.640640 0.640640 0.640640 0.640640 0.640640 0.640640 0.698880 0.698880 0.698880 0.698880 0.698880 0.698880 0.757120 0.757120 0.757120 0.757120 0.757120 0.757120 0.815360 0.815360 0.815360 0.815360 0.815360 0.815360 0.873600 0.873600 0.873600 0.873600 0.873600 0.873600 0.931840 0.931840 0.931840 0.931840 0.931840 0.931840 0.990080 0.990080 0.990080 0.990080 0.990080 0.990080 1.048320 1.048320 1.048320 1.048320 1.048320 1.048320 1.106560 1.106560 1.106560 1.106560 1.106560 1.106560 1.164800 1.164800 1.164800 1.164800 1.164800 1.164800 1.223040 1.223040 1.223040 1.223040 1.223040 1.223040 1.281280 1.281280 1.281280 1.281280 1.281280 1.281280 1.339520 1.339520 1.339520 1.339520 1.339520 1.339520 1.397760 1.397760 1.397760 1.397760 1.397760 1.397760 1.456000 1.456000 1.456000 1.456000 1.456000 1.456000 1.514240 1.514240 1.514240 1.514240 1.514240 1.514240 1.572480 1.572480 1.572480 1.572480 1.572480 1.572480 1.630720 1.630720 1.630720 1.630720 1.630720 1.630720 1.688960 1.688960 1.688960 1.688960 1.688960 1.688960 1.747200 1.747200 1.747200 1.747200 1.747200 1.747200 1.805440 1.805440 1.805440 1.805440 1.805440 1.805440 1.863680 1.863680 1.863680 1.863680 1.863680 1.863680 1.921920 1.921920 1.921920 1.921920 1.921920 1.921920 1.980160 1.980160 1.980160 1.980160 1.980160 1.980160 2.038400 2.038400 2.038400 2.038400 2.038400 2.038400 2.096640 2.096640 2.096640 2.096640 2.096640 2.096640 2.154880 2.154880 2.154880 2.154880 2.154880 2.154880 2.213120 2.213120 2.213120 2.213120 2.213120 2.213120 2.271360 2.271360 2.271360 2.271360 2.271360 2.271360 2.329600 2.329600 2.329600 2.329600 2.329600 2.329600 2.387840 2.387840 2.387840 2.387840 2.387840 2.387840 2.446080 2.446080 2.446080 2.446080 2.446080 2.446080 2.504320 2.504320 2.504320 2.504320 2.504320 2.504320 2.562560 2.562560 2.562560 2.562560 2.562560 2.562560 2.620800 2.620800 2.620800 2.620800 2.620800 2.620800 2.679040 2.679040 2.679040 2.679040 2.679040 2.679040 2.737280 2.737280 2.737280 2.737280 2.737280 2.737280 2.795520 2.795520 2.795520 2.795520 2.795520 2.795520 2.853760 2.853760 2.853760 2.853760 2.853760 2.853760 2.912000 2.912000 2.912000 2.912000 2.912000 2.912000
0.000000 0.000000 0.000000 0.000000 0.000000 0.000000 0.000000 0.000000 0.000000 0.000000 0.000000 0.000000 0.000000 0.000000 0.000000 0.000000 0.000000 0.000000 0.000000 0.000000 0.000000 0.000000 0.000000 0.000000 0.000000 0.000000 0.000000 0.000000 0.000000 0.000000 0.000000 0.000000 0.000000 0.000000 0.000000 0.000000 0.000000 0.000000 0.000000 0.000000 0.000000 0.000000 0.000000 0.000000 0.000000 0.000000 0.000000 0.000000 0.000000 0.000000 0.000000 0.000000 0.000000 0.000000 0.000000 0.000000 0.000000 0.000000 0.000000 0.000000 0.000000 0.000000 0.000000 0.000000 0.000000 0.000000 0.000000 0.000000 0.000000 0.000000 0.000000 0.000000 0.000000 0.000000 0.000000 0.000000 0.000000 0.000000 0.000000 0.000000 0.000000 0.000000 0.000000 0.000000 0.000000 0.000000 0.000000 0.000000 0.000000 0.000000 0.000000 0.000000 0.000000 0.000000 0.000000 0.000000 0.000000 0.000000 0.000000 0.000000 0.000000 0.000000 0.000000 0.000000 0.000000 0.000000 0.000000 0.000000 0.000000 0.000000 0.000000 0.000000 0.000000 0.000000 0.000000 0.000000 0.000000 0.000000 0.000000 0.000000 0.000000 0.000000 0.000000 0.000000 0.000000 0.000000 0.000000 0.000000 0.000000 0.000000 0.000000 0.000000 0.000000 0.000000 0.000000 0.000000 0.000000 0.000000 0.000000 0.000000 0.000000 0.000000 0.000000 0.000000 0.000000 0.000000 0.000000 0.000000 0.000000 0.000000 0.000000 0.000000 0.000000 0.000000 0.000000 0.000000 0.000000 0.000000 0.000000 0.000000 0.000000 0.000000 0.000000 0.000000 0.000000 0.000000 0.000000 0.000000 0.000000 0.000000 0.000000 0.000000 0.000000 0.000000 0.000000 0.000000 0.000000 0.000000 0.000000 0.000000 0.000000 0.000000 0.000000 0.000000 0.000000 0.000000 0.000000 0.000000 0.000000 0.000000 0.000000 0.000000 0.000000 0.000000 0.000000 0.000000 0.000000 0.000000 0.000000 0.000000 0.000000 0.000000 0.000000 0.000000 0.000000 0.000000 0.000000 0.000000 0.000000 0.000000 0.000000 0.000000 0.000000 0.000000 0.000000 0.000000 0.000000 0.000000 0.000000 0.000000 0.000000 0.000000 0.000000 0.000000 0.000000 0.000000 0.000000 0.000000 0.000000 0.000000 0.000000 0.000000 0.000000 0.000000 0.000000 0.000000 0.000000 0.000000 0.000000 0.000000 0.000000 0.000000 0.000000 0.000000 0.000000 0.000000 0.000000 0.000000 0.000000 0.000000 0.000000 0.000000 0.000000 0.000000 0.000000 0.000000 0.000000 0.000000 0.000000 0.000000 0.000000 0.000000 0.000000 0.000000 0.000000 0.000000 0.000000 0.000000 0.000000 0.000000 0.000000 0.000000 0.000000 0.000000 0.000000 0.000000 0.000000 0.000000 0.000000 0.000000 0.000000 0.000000 0.000000 0.000000 0.000000 0.000000 0.000000 0.000000 0.000000 0.000000 0.000000 0.000000 0.000000 0.000000 0.000000 0.000000 0.000000 0.000000 0.000000 0.000000 0.000000 0.000000 0.000000 0.000000 0.000000 0.000000
0.205031 0.294247 0.350187 0.386397 0.406727 0.204547 0.293535 0.349405 0.385657 0.406133 0.203882 0.292598 0.348365 0.384636 0.405226 0.203103 0.291519 0.347158 0.383418 0.404076 0.202236 0.290324 0.345810 0.382031 0.402721 0.201295 0.289026 0.344335 0.380489 0.401182 0.200288 0.287633 0.342740 0.378804 0.399475 0.199220 0.286149 0.341032 0.376982 0.397613 0.198096 0.284580 0.339214 0.375031 0.395604 0.196917 0.282927 0.337292 0.372956 0.393457 0.195686 0.281195 0.335269 0.370762 0.391178 0.194404 0.279384 0.333146 0.368452 0.388770 0.193073 0.277497 0.330927 0.366029 0.386240 0.191693 0.275535 0.328613 0.363496 0.383588 0.190264 0.273499 0.326205 0.360855 0.380818 0.188788 0.271390 0.323705 0.358105 0.377931 0.187263 0.269206 0.321112 0.355249 0.374928 0.185690 0.266949 0.318426 0.352286 0.371809 0.184069 0.264618 0.315646 0.349216 0.368574 0.182399 0.262211 0.312772 0.346036 0.365220 0.180678 0.259727 0.309802 0.342745 0.361747 0.178906 0.257165 0.306733 0.339342 0.358151 0.177080 0.254522 0.303562 0.335821 0.354428 0.175200 0.251794 0.300286 0.332179 0.350575 0.173263 0.248979 0.296900 0.328411 0.346586 0.171266 0.246073 0.293399 0.324511 0.342454 0.169206 0.243069 0.289776 0.320471 0.338171 0.167079 0.239963 0.286024 0.316282 0.333728 0.164880 0.236747 0.282133 0.311935 0.329113 0.162606 0.233412 0.278094 0.307416 0.324314 0.160248 0.229950 0.273893 0.302712 0.319315 0.157801 0.226349 0.269517 0.297805 0.314097 0.155256 0.222594 0.264947 0.292676 0.308640 0.152602 0.218671 0.260163 0.287301 0.302917 0.149828 0.214559 0.255141 0.281652 0.296898 0.146919 0.210236 0.249850 0.275693 0.290547 0.143857 0.205674 0.244255 0.269385 0.283820 0.140623 0.200838 0.238313 0.262677 0.276662 0.137188 0.195685 0.231968 0.255508 0.269010 0.133521 0.190163 0.225154 0.247800 0.260781 0.129578 0.184202 0.217785 0.239459 0.251875 0.125306 0.177715 0.209750 0.230360 0.242161 0.120630 0.170583 0.200902 0.220342 0.231470 0.115448 0.162643 0.191045 0.209188 0.219579 0.109613 0.153664 0.179903 0.196601 0.206178 0.102899 0.143299 0.167072 0.182150 0.190824 0.094935 0.131000 0.151930 0.165177 0.172841 0.085044 0.115819 0.133429 0.144583 0.151098 0.071779 0.095879 0.109538 0.118237 0.123394 0.051122 0.066357 0.075047 0.080652 0.084048 