Variables="X","Y","Z","GAMMA"
ZONE T="WING" i=6,j=51,k=1, ZONETYPE=Ordered
DATAPACKING=BLOCK
VARLOCATION=([4]=CELLCENTERED)
0.000000 0.200000 0.400000 0.600000 0.800000 1.000000 0.000245 0.200147 0.400049 0.599951 0.799853 0.999755 0.000982 0.200589 0.400196 0.599804 0.799411 0.999018 0.002208 0.201325 0.400442 0.599558 0.798675 0.997792 0.003923 0.202354 0.400785 0.599215 0.797646 0.996077 0.006125 0.203675 0.401225 0.598775 0.796325 0.993875 0.008812 0.205287 0.401762 0.598238 0.794713 0.991188 0.011981 0.207188 0.402396 0.597604 0.792812 0.988019 0.015629 0.209377 0.403126 0.596874 0.790623 0.984371 0.019752 0.211851 0.403950 0.596050 0.788149 0.980248 0.024346 0.214608 0.404869 0.595131 0.785392 0.975654 0.029407 0.217644 0.405881 0.594119 0.782356 0.970593 0.034930 0.220958 0.406986 0.593014 0.779042 0.965070 0.040908 0.224545 0.408182 0.591818 0.775455 0.959092 0.047336 0.228402 0.409467 0.590533 0.771598 0.952664 0.054208 0.232525 0.410842 0.589158 0.767475 0.945792 0.061516 0.236909 0.412303 0.587697 0.763091 0.938484 0.069253 0.241552 0.413851 0.586149 0.758448 0.930747 0.077411 0.246447 0.415482 0.584518 0.753553 0.922589 0.085982 0.251589 0.417196 0.582804 0.748411 0.914018 0.094958 0.256975 0.418992 0.581008 0.743025 0.905042 0.104329 0.262597 0.420866 0.579134 0.737403 0.895671 0.114085 0.268451 0.422817 0.577183 0.731549 0.885915 0.124216 0.274530 0.424843 0.575157 0.725470 0.875784 0.134713 0.280828 0.426943 0.573057 0.719172 0.865287 0.145564 0.287338 0.429113 0.570887 0.712662 0.854436 0.156757 0.294054 0.431351 0.568649 0.705946 0.843243 0.168282 0.300969 0.433656 0.566344 0.699031 0.831718 0.180126 0.308076 0.436025 0.563975 0.691924 0.819874 0.192276 0.315365 0.438455 0.561545 0.684635 0.807724 0.204719 0.322831 0.440944 0.559056 0.677169 0.795281 0.217441 0.330465 0.443488 0.556512 0.669535 0.782559 0.230429 0.338257 0.446086 0.553914 0.661743 0.769571 0.243666 0.346200 0.448733 0.551267 0.653800 0.756334 0.257139 0.354283 0.451428 0.548572 0.645717 0.742861 0.270829 0.362498 0.454166 0.545834 0.637502 0.729171 0.284720 0.370832 0.456944 0.543056 0.629168 0.715280 0.298793 0.379276 0.459759 0.540241 0.620724 0.701207 0.313025 0.387815 0.462605 0.537395 0.612185 0.686975 0.327395 0.396437 0.465479 0.534521 0.603563 0.672605 0.341875 0.405125 0.468375 0.531625 0.594875 0.658125 0.356432 0.413859 0.471286 0.528714 0.586141 0.643568 0.371026 0.422615 0.474205 0.525795 0.577385 0.628974 0.385601 0.431361 0.477120 0.522880 0.568639 0.614399 0.400080 0.440048 0.480016 0.519984 0.559952 0.599920 0.414342 0.448605 0.482868 0.517132 0.551395 0.585658 0.428184 0.456911 0.485637 0.514363 0.543089 0.571816 0.441238 0.464743 0.488248 0.511752 0.535257 0.558762 0.452769 0.471662 0.490554 0.509446 0.528338 0.547231 0.461329 0.476798 0.492266 0.507734 0.523202 0.538671 0.464645 0.478787 0.492929 0.507071 0.521213 0.535355
-0.000000 -0.000000 -0.000000 -0.000000 -0.000000 -0.000000 0.012335 0.012335 0.012335 0.012335 0.012335 0.012335 0.024658 0.024658 0.024658 0.024658 0.024658 0.024658 0.036956 0.036956 0.036956 0.036956 0.036956 0.036956 0.049218 0.049218 0.049218 0.049218 0.049218 0.049218 0.061432 0.061432 0.061432 0.061432 0.061432 0.061432 0.073584 0.073584 0.073584 0.073584 0.073584 0.073584 0.085665 0.085665 0.085665 0.085665 0.085665 0.085665 0.097660 0.097660 0.097660 0.097660 0.097660 0.097660 0.109560 0.109560 0.109560 0.109560 0.109560 0.109560 0.121351 0.121351 0.121351 0.121351 0.121351 0.121351 0.133022 0.133022 0.133022 0.133022 0.133022 0.133022 0.144562 0.144562 0.144562 0.144562 0.144562 0.144562 0.155960 0.155960 0.155960 0.155960 0.155960 0.155960 0.167203 0.167203 0.167203 0.167203 0.167203 0.167203 0.178282 0.178282 0.178282 0.178282 0.178282 0.178282 0.189184 0.189184 0.189184 0.189184 0.189184 0.189184 0.199900 0.199900 0.199900 0.199900 0.199900 0.199900 0.210419 0.210419 0.210419 0.210419 0.210419 0.210419 0.220730 0.220730 0.220730 0.220730 0.220730 0.220730 0.230823 0.230823 0.230823 0.230823 0.230823 0.230823 0.240688 0.240688 0.240688 0.240688 0.240688 0.240688 0.250316 0.250316 0.250316 0.250316 0.250316 0.250316 0.259697 0.259697 0.259697 0.259697 0.259697 0.259697 0.268821 0.268821 0.268821 0.268821 0.268821 0.268821 0.277680 0.277680 0.277680 0.277680 0.277680 0.277680 0.286265 0.286265 0.286265 0.286265 0.286265 0.286265 0.294568 0.294568 0.294568 0.294568 0.294568 0.294568 0.302580 0.302580 0.302580 0.302580 0.302580 0.302580 0.310293 0.310293 0.310293 0.310293 0.310293 0.310293 0.317700 0.317700 0.317700 0.317700 0.317700 0.317700 0.324794 0.324794 0.324794 0.324794 0.324794 0.324794 0.331567 0.331567 0.331567 0.331567 0.331567 0.331567 0.338013 0.338013 0.338013 0.338013 0.338013 0.338013 0.344125 0.344125 0.344125 0.344125 0.344125 0.344125 0.349897 0.349897 0.349897 0.349897 0.349897 0.349897 0.355325 0.355325 0.355325 0.355325 0.355325 0.355325 0.360401 0.360401 0.360401 0.360401 0.360401 0.360401 0.365122 0.365122 0.365122 0.365122 0.365122 0.365122 0.369483 0.369483 0.369483 0.369483 0.369483 0.369483 0.373479 0.373479 0.373479 0.373479 0.373479 0.373479 0.377106 0.377106 0.377106 0.377106 0.377106 0.377106 0.380362 0.380362 0.380362 0.380362 0.380362 0.380362 0.383242 0.383242 0.383242 0.383242 0.383242 0.383242 0.385743 0.385743 0.385743 0.385743 0.385743 0.385743 0.387864 0.387864 0.387864 0.387864 0.387864 0.387864 0.389603 0.389603 0.389603 0.389603 0.389603 0.389603 0.390956 0.390956 0.390956 0.390956 0.390956 0.390956 0.391924 0.391924 0.391924 0.391924 0.391924 0.391924 0.392505 0.392505 0.392505 0.392505 0.392505 0.392505 0.392699 0.392699 0.392699 0.392699 0.392699 0.392699
0.000000 0.000000 0.000000 0.000000 0.000000 0.000000 0.000000 0.000000 0.000000 0.000000 0.000000 0.000000 0.000000 0.000000 0.000000 0.000000 0.000000 0.000000 0.000000 0.000000 0.000000 0.000000 0.000000 0.000000 0.000000 0.000000 0.000000 0.000000 0.000000 0.000000 0.000000 0.000000 0.000000 0.000000 0.000000 0.000000 0.000000 0.000000 0.000000 0.000000 0.000000 0.000000 0.000000 0.000000 0.000000 0.000000 0.000000 0.000000 0.000000 0.000000 0.000000 0.000000 0.000000 0.000000 0.000000 0.000000 0.000000 0.000000 0.000000 0.000000 0.000000 0.000000 0.000000 0.000000 0.000000 0.000000 0.000000 0.000000 0.000000 0.000000 0.000000 0.000000 0.000000 0.000000 0.000000 0.000000 0.000000 0.000000 0.000000 0.000000 0.000000 0.000000 0.000000 0.000000 0.000000 0.000000 0.000000 0.000000 0.000000 0.000000 0.000000 0.000000 0.000000 0.000000 0.000000 0.000000 0.000000 0.000000 0.000000 0.000000 0.000000 0.000000 0.000000 0.000000 0.000000 0.000000 0.000000 0.000000 0.000000 0.000000 0.000000 0.000000 0.000000 0.000000 0.000000 0.000000 0.000000 0.000000 0.000000 0.000000 0.000000 0.000000 0.000000 0.000000 0.000000 0.000000 0.000000 0.000000 0.000000 0.000000 0.000000 0.000000 0.000000 0.000000 0.000000 0.000000 0.000000 0.000000 0.000000 0.000000 0.000000 0.000000 0.000000 0.000000 0.000000 0.000000 0.000000 0.000000 0.000000 0.000000 0.000000 0.000000 0.000000 0.000000 0.000000 0.000000 0.000000 0.000000 0.000000 0.000000 0.000000 0.000000 0.000000 0.000000 0.000000 0.000000 0.000000 0.000000 0.000000 0.000000 0.000000 0.000000 0.000000 0.000000 0.000000 0.000000 0.000000 0.000000 0.000000 0.000000 0.000000 0.000000 0.000000 0.000000 0.000000 0.000000 0.000000 0.000000 0.000000 0.000000 0.000000 0.000000 0.000000 0.000000 0.000000 0.000000 0.000000 0.000000 0.000000 0.000000 0.000000 0.000000 0.000000 0.000000 0.000000 0.000000 0.000000 0.000000 0.000000 0.000000 0.000000 0.000000 0.000000 0.000000 0.000000 0.000000 0.000000 0.000000 0.000000 0.000000 0.000000 0.000000 0.000000 0.000000 0.000000 0.000000 0.000000 0.000000 0.000000 0.000000 0.000000 0.000000 0.000000 0.000000 0.000000 0.000000 0.000000 0.000000 0.000000 0.000000 0.000000 0.000000 0.000000 0.000000 0.000000 0.000000 0.000000 0.000000 0.000000 0.000000 0.000000 0.000000 0.000000 0.000000 0.000000 0.000000 0.000000 0.000000 0.000000 0.000000 0.000000 0.000000 0.000000 0.000000 0.000000 0.000000 0.000000 0.000000 0.000000 0.000000 0.000000 0.000000 0.000000 0.000000 0.000000 0.000000 0.000000 0.000000 0.000000 0.000000 0.000000 0.000000 0.000000 0.000000 0.000000 0.000000 0.000000 0.000000 0.000000 0.000000 0.000000 0.000000 0.000000 0.000000 0.000000 0.000000 0.000000 0.000000 0.000000 0.000000 0.000000 0.000000 0.000000 0.000000 0.000000 0.000000
-0.000000 -0.000000 -0.000000 -0.000000 -0.000000 -0.000000 -0.000000 -0.000000 -0.000000 -0.000000 -0.000000 -0.000000 -0.000000 -0.000000 -0.000000 -0.000000 -0.000000 -0.000000 -0.000000 -0.000000 -0.000000 -0.000000 -0.000000 -0.000000 -0.000000 -0.000000 -0.000000 -0.000000 -0.000000 -0.000000 -0.000000 -0.000000 -0.000000 -0.000000 -0.000000 -0.000000 -0.000000 -0.000000 -0.000000 -0.000000 -0.000000 -0.000000 -0.000000 -0.000000 -0.000000 -0.000000 -0.000000 -0.000000 -0.000000 -0.000000 -0.000000 -0.000000 -0.000000 -0.000000 -0.000000 -0.000000 -0.000000 -0.000000 -0.000000 -0.000000 -0.000000 -0.000000 -0.000000 -0.000000 -0.000000 -0.000000 -0.000000 -0.000000 -0.000000 -0.000000 -0.000000 -0.000000 -0.000000 -0.000000 -0.000000 -0.000000 -0.000000 -0.000000 -0.000000 -0.000000 -0.000000 -0.000000 -0.000000 -0.000000 -0.000000 -0.000000 -0.000000 -0.000000 -0.000000 -0.000000 -0.000000 -0.000000 -0.000000 -0.000000 -0.000000 -0.000000 -0.000000 -0.000000 -0.000000 -0.000000 -0.000000 -0.000000 -0.000000 -0.000000 -0.000000 -0.000000 -0.000000 -0.000000 -0.000000 -0.000000 -0.000000 -0.000000 -0.000000 -0.000000 -0.000000 -0.000000 -0.000000 -0.000000 -0.000000 -0.000000 -0.000000 -0.000000 -0.000000 -0.000000 -0.000000 -0.000000 -0.000000 -0.000000 -0.000000 -0.000000 -0.000000 -0.000000 -0.000000 -0.000000 -0.000000 -0.000000 -0.000000 -0.000000 -0.000000 -0.000000 -0.000000 -0.000000 -0.000000 -0.000000 -0.000000 -0.000000 -0.000000 -0.000000 -0.000000 -0.000000 -0.000000 -0.000000 -0.000000 -0.000000 -0.000000 -0.000000 -0.000000 -0.000000 -0.000000 -0.000000 -0.000000 -0.000000 -0.000000 -0.000000 -0.000000 -0.000000 -0.000000 -0.000000 -0.000000 -0.000000 -0.000000 -0.000000 -0.000000 -0.000000 -0.000000 -0.000000 -0.000000 -0.000000 -0.000000 -0.000000 -0.000000 -0.000000 -0.000000 -0.000000 -0.000000 -0.000000 -0.000000 -0.000000 -0.000000 -0.000000 -0.000000 -0.000000 -0.000000 -0.000000 -0.000000 -0.000000 -0.000000 -0.000000 -0.000000 -0.000000 -0.000000 -0.000000 -0.000000 -0.000000 -0.000000 -0.000000 -0.000000 -0.000000 -0.000000 -0.000000 -0.000000 -0.000000 -0.000000 -0.000000 -0.000000 -0.000000 -0.000000 -0.000000 -0.000000 -0.000000 -0.000000 -0.000000 -0.000000 -0.000000 -0.000000 -0.000000 -0.000000 -0.000000 -0.000000 -0.000000 -0.000000 -0.000000 -0.000000 -0.000000 -0.000000 -0.000000 -0.000000 -0.000000 -0.000000 -0.000000 0.000000 0.000000 0.000000 0.000000 0.000000 -0.000000 -0.000000 -0.000000 -0.000000 -0.000000 