Variables="X","Y","Z","GAMMA"
ZONE T="WING" i=6,j=51,k=1, ZONETYPE=Ordered
DATAPACKING=BLOCK
VARLOCATION=([4]=CELLCENTERED)
0.000000 0.200000 0.400000 0.600000 0.800000 1.000000 0.140042 0.337642 0.535242 0.732842 0.930442 1.128042 0.280083 0.475283 0.670483 0.865683 1.060883 1.256083 0.420125 0.612925 0.805725 0.998525 1.191325 1.384125 0.560166 0.750566 0.940966 1.131366 1.321766 1.512166 0.700208 0.888208 1.076208 1.264208 1.452208 1.640208 0.840249 1.025849 1.211449 1.397049 1.582649 1.768249 0.980291 1.163491 1.346691 1.529891 1.713091 1.896291 1.120332 1.301132 1.481932 1.662732 1.843532 2.024332 1.260374 1.438774 1.617174 1.795574 1.973974 2.152374 1.400415 1.576415 1.752415 1.928415 2.104415 2.280415 1.540457 1.714057 1.887657 2.061257 2.234857 2.408457 1.680498 1.851698 2.022898 2.194098 2.365298 2.536498 1.820540 1.989340 2.158140 2.326940 2.495740 2.664540 1.960581 2.126981 2.293381 2.459781 2.626181 2.792581 2.100623 2.264623 2.428623 2.592623 2.756623 2.920623 2.240664 2.402264 2.563864 2.725464 2.887064 3.048664 2.380706 2.539906 2.699106 2.858306 3.017506 3.176706 2.520747 2.677547 2.834347 2.991147 3.147947 3.304747 2.660789 2.815189 2.969589 3.123989 3.278389 3.432789 2.800830 2.952830 3.104830 3.256830 3.408830 3.560830 2.940872 3.090472 3.240072 3.389672 3.539272 3.688872 3.080913 3.228113 3.375313 3.522513 3.669713 3.816913 3.220955 3.365755 3.510555 3.655355 3.800155 3.944955 3.360996 3.503396 3.645796 3.788196 3.930596 4.072996 3.501038 3.641038 3.781038 3.921038 4.061038 4.201038 3.641079 3.778679 3.916279 4.053879 4.191479 4.329079 3.781121 3.916321 4.051521 4.186721 4.321921 4.457121 3.921162 4.053962 4.186762 4.319562 4.452362 4.585162 4.061204 4.191604 4.322004 4.452404 4.582804 4.713204 4.201245 4.329245 4.457245 4.585245 4.713245 4.841245 4.341287 4.466887 4.592487 4.718087 4.843687 4.969287 4.481328 4.604528 4.727728 4.850928 4.974128 5.097328 4.621370 4.742170 4.862970 4.983770 5.104570 5.225370 4.761411 4.879811 4.998211 5.116611 5.235011 5.353411 4.901453 5.017453 5.133453 5.249453 5.365453 5.481453 5.041494 5.155094 5.268694 5.382294 5.495894 5.609494 5.181536 5.292736 5.403936 5.515136 5.626336 5.737536 5.321577 5.430377 5.539177 5.647977 5.756777 5.865577 5.461619 5.568019 5.674419 5.780819 5.887219 5.993619 5.601660 5.705660 5.809660 5.913660 6.017660 6.121660 5.741702 5.843302 5.944902 6.046502 6.148102 6.249702 5.881743 5.980943 6.080143 6.179343 6.278543 6.377743 6.021785 6.118585 6.215385 6.312185 6.408985 6.505785 6.161826 6.256226 6.350626 6.445026 6.539426 6.633826 6.301868 6.393868 6.485868 6.577868 6.669868 6.761868 6.441909 6.531509 6.621109 6.710709 6.800309 6.889909 6.581951 6.669151 6.756351 6.843551 6.930751 7.017951 6.721992 6.806792 6.891592 6.976392 7.061192 7.145992 6.862034 6.944434 7.026834 7.109234 7.191634 7.274034 7.002075 7.082075 7.162075 7.242075 7.322075 7.402075
0.000000 0.000000 0.000000 0.000000 0.000000 0.000000 0.200000 0.200000 0.200000 0.200000 0.200000 0.200000 0.400000 0.400000 0.400000 0.400000 0.400000 0.400000 0.600000 0.600000 0.600000 0.600000 0.600000 0.600000 0.800000 0.800000 0.800000 0.800000 0.800000 0.800000 1.000000 1.000000 1.000000 1.000000 1.000000 1.000000 1.200000 1.200000 1.200000 1.200000 1.200000 1.200000 1.400000 1.400000 1.400000 1.400000 1.400000 1.400000 1.600000 1.600000 1.600000 1.600000 1.600000 1.600000 1.800000 1.800000 1.800000 1.800000 1.800000 1.800000 2.000000 2.000000 2.000000 2.000000 2.000000 2.000000 2.200000 2.200000 2.200000 2.200000 2.200000 2.200000 2.400000 2.400000 2.400000 2.400000 2.400000 2.400000 2.600000 2.600000 2.600000 2.600000 2.600000 2.600000 2.800000 2.800000 2.800000 2.800000 2.800000 2.800000 3.000000 3.000000 3.000000 3.000000 3.000000 3.000000 3.200000 3.200000 3.200000 3.200000 3.200000 3.200000 3.400000 3.400000 3.400000 3.400000 3.400000 3.400000 3.600000 3.600000 3.600000 3.600000 3.600000 3.600000 3.800000 3.800000 3.800000 3.800000 3.800000 3.800000 4.000000 4.000000 4.000000 4.000000 4.000000 4.000000 4.200000 4.200000 4.200000 4.200000 4.200000 4.200000 4.400000 4.400000 4.400000 4.400000 4.400000 4.400000 4.600000 4.600000 4.600000 4.600000 4.600000 4.600000 4.800000 4.800000 4.800000 4.800000 4.800000 4.800000 5.000000 5.000000 5.000000 5.000000 5.000000 5.000000 5.200000 5.200000 5.200000 5.200000 5.200000 5.200000 5.400000 5.400000 5.400000 5.400000 5.400000 5.400000 5.600000 5.600000 5.600000 5.600000 5.600000 5.600000 5.800000 5.800000 5.800000 5.800000 5.800000 5.800000 6.000000 6.000000 6.000000 6.000000 6.000000 6.000000 6.200000 6.200000 6.200000 6.200000 6.200000 6.200000 6.400000 6.400000 6.400000 6.400000 6.400000 6.400000 6.600000 6.600000 6.600000 6.600000 6.600000 6.600000 6.800000 6.800000 6.800000 6.800000 6.800000 6.800000 7.000000 7.000000 7.000000 7.000000 7.000000 7.000000 7.200000 7.200000 7.200000 7.200000 7.200000 7.200000 7.400000 7.400000 7.400000 7.400000 7.400000 7.400000 7.600000 7.600000 7.600000 7.600000 7.600000 7.600000 7.800000 7.800000 7.800000 7.800000 7.800000 7.800000 8.000000 8.000000 8.000000 8.000000 8.000000 8.000000 8.200000 8.200000 8.200000 8.200000 8.200000 8.200000 8.400000 8.400000 8.400000 8.400000 8.400000 8.400000 8.600000 8.600000 8.600000 8.600000 8.600000 8.600000 8.800000 8.800000 8.800000 8.800000 8.800000 8.800000 9.000000 9.000000 9.000000 9.000000 9.000000 9.000000 9.200000 9.200000 9.200000 9.200000 9.200000 9.200000 9.400000 9.400000 9.400000 9.400000 9.400000 9.400000 9.600000 9.600000 9.600000 9.600000 9.600000 9.600000 9.800000 9.800000 9.800000 9.800000 9.800000 9.800000 10.000000 10.000000 10.000000 10.000000 10.000000 10.000000
0.000000 0.000000 0.000000 0.000000 0.000000 0.000000 0.000000 0.000000 0.000000 0.000000 0.000000 0.000000 0.000000 0.000000 0.000000 0.000000 0.000000 0.000000 0.000000 0.000000 0.000000 0.000000 0.000000 0.000000 0.000000 0.000000 0.000000 0.000000 0.000000 0.000000 0.000000 0.000000 0.000000 0.000000 0.000000 0.000000 0.000000 0.000000 0.000000 0.000000 0.000000 0.000000 0.000000 0.000000 0.000000 0.000000 0.000000 0.000000 0.000000 0.000000 0.000000 0.000000 0.000000 0.000000 0.000000 0.000000 0.000000 0.000000 0.000000 0.000000 0.000000 0.000000 0.000000 0.000000 0.000000 0.000000 0.000000 0.000000 0.000000 0.000000 0.000000 0.000000 0.000000 0.000000 0.000000 0.000000 0.000000 0.000000 0.000000 0.000000 0.000000 0.000000 0.000000 0.000000 0.000000 0.000000 0.000000 0.000000 0.000000 0.000000 0.000000 0.000000 0.000000 0.000000 0.000000 0.000000 0.000000 0.000000 0.000000 0.000000 0.000000 0.000000 0.000000 0.000000 0.000000 0.000000 0.000000 0.000000 0.000000 0.000000 0.000000 0.000000 0.000000 0.000000 0.000000 0.000000 0.000000 0.000000 0.000000 0.000000 0.000000 0.000000 0.000000 0.000000 0.000000 0.000000 0.000000 0.000000 0.000000 0.000000 0.000000 0.000000 0.000000 0.000000 0.000000 0.000000 0.000000 0.000000 0.000000 0.000000 0.000000 0.000000 0.000000 0.000000 0.000000 0.000000 0.000000 0.000000 0.000000 0.000000 0.000000 0.000000 0.000000 0.000000 0.000000 0.000000 0.000000 0.000000 0.000000 0.000000 0.000000 0.000000 0.000000 0.000000 0.000000 0.000000 0.000000 0.000000 0.000000 0.000000 0.000000 0.000000 0.000000 0.000000 0.000000 0.000000 0.000000 0.000000 0.000000 0.000000 0.000000 0.000000 0.000000 0.000000 0.000000 0.000000 0.000000 0.000000 0.000000 0.000000 0.000000 0.000000 0.000000 0.000000 0.000000 0.000000 0.000000 0.000000 0.000000 0.000000 0.000000 0.000000 0.000000 0.000000 0.000000 0.000000 0.000000 0.000000 0.000000 0.000000 0.000000 0.000000 0.000000 0.000000 0.000000 0.000000 0.000000 0.000000 0.000000 0.000000 0.000000 0.000000 0.000000 0.000000 0.000000 0.000000 0.000000 0.000000 0.000000 0.000000 0.000000 0.000000 0.000000 0.000000 0.000000 0.000000 0.000000 0.000000 0.000000 0.000000 0.000000 0.000000 0.000000 0.000000 0.000000 0.000000 0.000000 0.000000 0.000000 0.000000 0.000000 0.000000 0.000000 0.000000 0.000000 0.000000 0.000000 0.000000 0.000000 0.000000 0.000000 0.000000 0.000000 0.000000 0.000000 0.000000 0.000000 0.000000 0.000000 0.000000 0.000000 0.000000 0.000000 0.000000 0.000000 0.000000 0.000000 0.000000 0.000000 0.000000 0.000000 0.000000 0.000000 0.000000 0.000000 0.000000 0.000000 0.000000 0.000000 0.000000 0.000000 0.000000 0.000000 0.000000 0.000000 0.000000 0.000000 0.000000 0.000000 0.000000 0.000000 0.000000 0.000000 0.000000 0.000000 0.000000
0.084166 0.128763 0.161282 0.185216 0.200422 0.094070 0.139130 0.170237 0.192166 0.205408 0.099334 0.145213 0.175869 0.196946 0.209498 0.102364 0.148863 0.179431 0.200196 0.212485 0.104168 0.151096 0.181691 0.202345 0.214523 0.105230 0.152428 0.183062 0.203669 0.215788 0.105803 0.153139 0.183784 0.204353 0.216429 0.106029 0.153396 0.184010 0.204528 0.216560 0.105994 0.153301 0.183843 0.204293 0.216274 0.105756 0.152926 0.183358 0.203719 0.215639 0.105353 0.152324 0.182609 0.202861 0.214712 0.104816 0.151531 0.181640 0.201766 0.213537 0.104164 0.150578 0.180483 0.200466 0.212150 0.103416 0.149488 0.179166 0.198991 0.210579 0.102584 0.148280 0.177709 0.197364 0.208850 0.101681 0.146969 0.176131 0.195604 0.206982 0.100714 0.145568 0.174447 0.193727 0.204991 0.099692 0.144088 0.172668 0.191747 0.202891 0.098621 0.142537 0.170806 0.189674 0.200695 0.097505 0.140924 0.168869 0.187520 0.198412 0.096351 0.139253 0.166865 0.185291 0.196051 0.095160 0.137532 0.164800 0.182996 0.193620 0.093938 0.135764 0.162680 0.180640 0.191125 0.092686 0.133955 0.160510 0.178228 0.188572 0.091407 0.132107 0.158294 0.175765 0.185965 0.090104 0.130223 0.156035 0.173256 0.183309 0.088778 0.128306 0.153738 0.170704 0.180607 0.087431 0.126359 0.151404 0.168111 0.177863 0.086064 0.124383 0.149035 0.165480 0.175078 0.084678 0.122381 0.146635 0.162814 0.172256 0.083275 0.120353 0.144204 0.160113 0.169398 0.081854 0.118300 0.141743 0.157380 0.166505 0.080418 0.116224 0.139255 0.154615 0.163579 0.078965 0.114124 0.136738 0.151820 0.160620 0.077497 0.112001 0.134193 0.148993 0.157628 0.076012 0.109856 0.131621 0.146134 0.154602 0.074512 0.107686 0.129019 0.143243 0.151541 0.072993 0.105490 0.126385 0.140316 0.148442 0.071456 0.103266 0.123718 0.137350 0.145301 0.069898 0.101011 0.121010 0.134339 0.142111 0.068314 0.098717 0.118256 0.131274 0.138863 0.066699 0.096376 0.115442 0.128140 0.135539 0.065043 0.093973 0.112548 0.124913 0.132113 0.063331 0.091481 0.109542 0.121553 0.128540 0.061534 0.088857 0.106363 0.117987 0.124737 0.059600 0.086014 0.102896 0.114072 0.120543 0.057422 0.082774 0.098895 0.109504 0.115608 0.054755 0.078716 0.093772 0.103542 0.109078 0.050918 0.072644 0.085829 0.094051 0.098526 0.043279 0.059794 0.068567 0.073454 0.075894 