Variables="X","Y","Z","GAMMA"
ZONE T="WING" i=6,j=51,k=1, ZONETYPE=Ordered
DATAPACKING=BLOCK
VARLOCATION=([4]=CELLCENTERED)
0.000000 0.200000 0.400000 0.600000 0.800000 1.000000 0.006369 0.206369 0.406369 0.606369 0.806369 1.006369 0.012738 0.212738 0.412738 0.612738 0.812738 1.012738 0.019108 0.219108 0.419108 0.619108 0.819108 1.019108 0.025477 0.225477 0.425477 0.625477 0.825477 1.025477 0.031846 0.231846 0.431846 0.631846 0.831846 1.031846 0.038215 0.238215 0.438215 0.638215 0.838215 1.038215 0.044584 0.244584 0.444584 0.644584 0.844584 1.044584 0.050953 0.250953 0.450953 0.650953 0.850953 1.050953 0.057323 0.257323 0.457323 0.657323 0.857323 1.057323 0.063692 0.263692 0.463692 0.663692 0.863692 1.063692 0.070061 0.270061 0.470061 0.670061 0.870061 1.070061 0.076430 0.276430 0.476430 0.676430 0.876430 1.076430 0.082799 0.282799 0.482799 0.682799 0.882799 1.082799 0.089168 0.289168 0.489168 0.689168 0.889168 1.089168 0.095538 0.295538 0.495538 0.695538 0.895538 1.095538 0.101907 0.301907 0.501907 0.701907 0.901907 1.101907 0.108276 0.308276 0.508276 0.708276 0.908276 1.108276 0.114645 0.314645 0.514645 0.714645 0.914645 1.114645 0.121014 0.321014 0.521014 0.721014 0.921014 1.121014 0.127383 0.327383 0.527383 0.727383 0.927383 1.127383 0.133753 0.333753 0.533753 0.733753 0.933753 1.133753 0.140122 0.340122 0.540122 0.740122 0.940122 1.140122 0.146491 0.346491 0.546491 0.746491 0.946491 1.146491 0.152860 0.352860 0.552860 0.752860 0.952860 1.152860 0.159229 0.359229 0.559229 0.759229 0.959229 1.159229 0.165599 0.365599 0.565599 0.765599 0.965599 1.165599 0.171968 0.371968 0.571968 0.771968 0.971968 1.171968 0.178337 0.378337 0.578337 0.778337 0.978337 1.178337 0.184706 0.384706 0.584706 0.784706 0.984706 1.184706 0.191075 0.391075 0.591075 0.791075 0.991075 1.191075 0.197444 0.397444 0.597444 0.797444 0.997444 1.197444 0.203814 0.403814 0.603814 0.803814 1.003814 1.203814 0.210183 0.410183 0.610183 0.810183 1.010183 1.210183 0.216552 0.416552 0.616552 0.816552 1.016552 1.216552 0.222921 0.422921 0.622921 0.822921 1.022921 1.222921 0.229290 0.429290 0.629290 0.829290 1.029290 1.229290 0.235659 0.435659 0.635659 0.835659 1.035659 1.235659 0.242029 0.442029 0.642029 0.842029 1.042029 1.242029 0.248398 0.448398 0.648398 0.848398 1.048398 1.248398 0.254767 0.454767 0.654767 0.854767 1.054767 1.254767 0.261136 0.461136 0.661136 0.861136 1.061136 1.261136 0.267505 0.467505 0.667505 0.867505 1.067505 1.267505 0.273875 0.473875 0.673875 0.873875 1.073875 1.273875 0.280244 0.480244 0.680244 0.880244 1.080244 1.280244 0.286613 0.486613 0.686613 0.886613 1.086613 1.286613 0.292982 0.492982 0.692982 0.892982 1.092982 1.292982 0.299351 0.499351 0.699351 0.899351 1.099351 1.299351 0.305720 0.505720 0.705720 0.905720 1.105720 1.305720 0.312090 0.512090 0.712090 0.912090 1.112090 1.312090 0.318459 0.518459 0.718459 0.918459 1.118459 1.318459
0.000000 0.000000 0.000000 0.000000 0.000000 0.000000 0.072800 0.072800 0.072800 0.072800 0.072800 0.072800 0.145600 0.145600 0.145600 0.145600 0.145600 0.145600 0.218400 0.218400 0.218400 0.218400 0.218400 0.218400 0.291200 0.291200 0.291200 0.291200 0.291200 0.291200 0.364000 0.364000 0.364000 0.364000 0.364000 0.364000 0.436800 0.436800 0.436800 0.436800 0.436800 0.436800 0.509600 0.509600 0.509600 0.509600 0.509600 0.509600 0.582400 0.582400 0.582400 0.582400 0.582400 0.582400 0.655200 0.655200 0.655200 0.655200 0.655200 0.655200 0.728000 0.728000 0.728000 0.728000 0.728000 0.728000 0.800800 0.800800 0.800800 0.800800 0.800800 0.800800 0.873600 0.873600 0.873600 0.873600 0.873600 0.873600 0.946400 0.946400 0.946400 0.946400 0.946400 0.946400 1.019200 1.019200 1.019200 1.019200 1.019200 1.019200 1.092000 1.092000 1.092000 1.092000 1.092000 1.092000 1.164800 1.164800 1.164800 1.164800 1.164800 1.164800 1.237600 1.237600 1.237600 1.237600 1.237600 1.237600 1.310400 1.310400 1.310400 1.310400 1.310400 1.310400 1.383200 1.383200 1.383200 1.383200 1.383200 1.383200 1.456000 1.456000 1.456000 1.456000 1.456000 1.456000 1.528800 1.528800 1.528800 1.528800 1.528800 1.528800 1.601600 1.601600 1.601600 1.601600 1.601600 1.601600 1.674400 1.674400 1.674400 1.674400 1.674400 1.674400 1.747200 1.747200 1.747200 1.747200 1.747200 1.747200 1.820000 1.820000 1.820000 1.820000 1.820000 1.820000 1.892800 1.892800 1.892800 1.892800 1.892800 1.892800 1.965600 1.965600 1.965600 1.965600 1.965600 1.965600 2.038400 2.038400 2.038400 2.038400 2.038400 2.038400 2.111200 2.111200 2.111200 2.111200 2.111200 2.111200 2.184000 2.184000 2.184000 2.184000 2.184000 2.184000 2.256800 2.256800 2.256800 2.256800 2.256800 2.256800 2.329600 2.329600 2.329600 2.329600 2.329600 2.329600 2.402400 2.402400 2.402400 2.402400 2.402400 2.402400 2.475200 2.475200 2.475200 2.475200 2.475200 2.475200 2.548000 2.548000 2.548000 2.548000 2.548000 2.548000 2.620800 2.620800 2.620800 2.620800 2.620800 2.620800 2.693600 2.693600 2.693600 2.693600 2.693600 2.693600 2.766400 2.766400 2.766400 2.766400 2.766400 2.766400 2.839200 2.839200 2.839200 2.839200 2.839200 2.839200 2.912000 2.912000 2.912000 2.912000 2.912000 2.912000 2.984800 2.984800 2.984800 2.984800 2.984800 2.984800 3.057600 3.057600 3.057600 3.057600 3.057600 3.057600 3.130400 3.130400 3.130400 3.130400 3.130400 3.130400 3.203200 3.203200 3.203200 3.203200 3.203200 3.203200 3.276000 3.276000 3.276000 3.276000 3.276000 3.276000 3.348800 3.348800 3.348800 3.348800 3.348800 3.348800 3.421600 3.421600 3.421600 3.421600 3.421600 3.421600 3.494400 3.494400 3.494400 3.494400 3.494400 3.494400 3.567200 3.567200 3.567200 3.567200 3.567200 3.567200 3.640000 3.640000 3.640000 3.640000 3.640000 3.640000
0.000000 0.000000 0.000000 0.000000 0.000000 0.000000 0.000000 0.000000 0.000000 0.000000 0.000000 0.000000 0.000000 0.000000 0.000000 0.000000 0.000000 0.000000 0.000000 0.000000 0.000000 0.000000 0.000000 0.000000 0.000000 0.000000 0.000000 0.000000 0.000000 0.000000 0.000000 0.000000 0.000000 0.000000 0.000000 0.000000 0.000000 0.000000 0.000000 0.000000 0.000000 0.000000 0.000000 0.000000 0.000000 0.000000 0.000000 0.000000 0.000000 0.000000 0.000000 0.000000 0.000000 0.000000 0.000000 0.000000 0.000000 0.000000 0.000000 0.000000 0.000000 0.000000 0.000000 0.000000 0.000000 0.000000 0.000000 0.000000 0.000000 0.000000 0.000000 0.000000 0.000000 0.000000 0.000000 0.000000 0.000000 0.000000 0.000000 0.000000 0.000000 0.000000 0.000000 0.000000 0.000000 0.000000 0.000000 0.000000 0.000000 0.000000 0.000000 0.000000 0.000000 0.000000 0.000000 0.000000 0.000000 0.000000 0.000000 0.000000 0.000000 0.000000 0.000000 0.000000 0.000000 0.000000 0.000000 0.000000 0.000000 0.000000 0.000000 0.000000 0.000000 0.000000 0.000000 0.000000 0.000000 0.000000 0.000000 0.000000 0.000000 0.000000 0.000000 0.000000 0.000000 0.000000 0.000000 0.000000 0.000000 0.000000 0.000000 0.000000 0.000000 0.000000 0.000000 0.000000 0.000000 0.000000 0.000000 0.000000 0.000000 0.000000 0.000000 0.000000 0.000000 0.000000 0.000000 0.000000 0.000000 0.000000 0.000000 0.000000 0.000000 0.000000 0.000000 0.000000 0.000000 0.000000 0.000000 0.000000 0.000000 0.000000 0.000000 0.000000 0.000000 0.000000 0.000000 0.000000 0.000000 0.000000 0.000000 0.000000 0.000000 0.000000 0.000000 0.000000 0.000000 0.000000 0.000000 0.000000 0.000000 0.000000 0.000000 0.000000 0.000000 0.000000 0.000000 0.000000 0.000000 0.000000 0.000000 0.000000 0.000000 0.000000 0.000000 0.000000 0.000000 0.000000 0.000000 0.000000 0.000000 0.000000 0.000000 0.000000 0.000000 0.000000 0.000000 0.000000 0.000000 0.000000 0.000000 0.000000 0.000000 0.000000 0.000000 0.000000 0.000000 0.000000 0.000000 0.000000 0.000000 0.000000 0.000000 0.000000 0.000000 0.000000 0.000000 0.000000 0.000000 0.000000 0.000000 0.000000 0.000000 0.000000 0.000000 0.000000 0.000000 0.000000 0.000000 0.000000 0.000000 0.000000 0.000000 0.000000 0.000000 0.000000 0.000000 0.000000 0.000000 0.000000 0.000000 0.000000 0.000000 0.000000 0.000000 0.000000 0.000000 0.000000 0.000000 0.000000 0.000000 0.000000 0.000000 0.000000 0.000000 0.000000 0.000000 0.000000 0.000000 0.000000 0.000000 0.000000 0.000000 0.000000 0.000000 0.000000 0.000000 0.000000 0.000000 0.000000 0.000000 0.000000 0.000000 0.000000 0.000000 0.000000 0.000000 0.000000 0.000000 0.000000 0.000000 0.000000 0.000000 0.000000 0.000000 0.000000 0.000000 0.000000 0.000000 0.000000 0.000000 0.000000 0.000000 0.000000 0.000000 0.000000
0.213188 0.311194 0.375097 0.418168 0.443647 0.215153 0.312654 0.376141 0.418868 0.444032 0.216763 0.314025 0.377163 0.419568 0.444456 0.217969 0.315165 0.378044 0.420180 0.444848 0.218867 0.316077 0.378767 0.420685 0.445177 0.219534 0.316785 0.379335 0.421077 0.445427 0.220026 0.317317 0.379758 0.421352 0.445585 0.220378 0.317695 0.380044 0.421513 0.445644 0.220614 0.317937 0.380200 0.421558 0.445600 0.220752 0.318056 0.380234 0.421488 0.445448 0.220803 0.318063 0.380150 0.421303 0.445186 0.220777 0.317965 0.379954 0.421005 0.444811 0.220678 0.317768 0.379646 0.420591 0.444320 0.220512 0.317475 0.379228 0.420061 0.443710 0.220280 0.317088 0.378701 0.419412 0.442977 0.219984 0.316609 0.378063 0.418643 0.442118 0.219625 0.316036 0.377313 0.417750 0.441128 0.219202 0.315368 0.376449 0.416728 0.440001 0.218716 0.314604 0.375466 0.415573 0.438732 0.218163 0.313741 0.374360 0.414278 0.437314 0.217542 0.312774 0.373125 0.412837 0.435738 0.216850 0.311699 0.371755 0.411241 0.433995 0.216084 0.310510 0.370242 0.409480 0.432076 0.215240 0.309201 0.368577 0.407545 0.429966 0.214313 0.307763 0.366750 0.405422 0.427654 0.213298 0.306188 0.364749 0.403098 0.425124 0.212188 0.304465 0.362559 0.400556 0.422357 0.210977 0.302583 0.360167 0.397778 0.419334 0.209655 0.300528 0.357554 0.394743 0.416032 0.208213 0.298284 0.354698 0.391428 0.412425 0.206641 0.295833 0.351578 0.387804 0.408483 0.204925 0.293155 0.348166 0.383839 0.404171 0.203051 0.290224 0.344429 0.379498 0.399450 0.201001 0.287014 0.340331 0.374736 0.394273 0.198756 0.283489 0.335829 0.369505 0.388588 0.196290 0.279610 0.330871 0.363746 0.382332 0.193575 0.275330 0.325397 0.357388 0.375430 0.190577 0.270591 0.319332 0.350349 0.367796 0.187251 0.265322 0.312588 0.342530 0.359325 0.183545 0.259435 0.305054 0.333808 0.349891 0.179389 0.252818 0.296594 0.324034 0.339338 0.174695 0.245327 0.287033 0.313021 0.327473 0.169344 0.236773 0.276147 0.300529 0.314053 0.163171 0.226898 0.263637 0.286244 0.298759 0.155937 0.215340 0.249096 0.269743 0.281160 0.147278 0.201571 0.231943 0.250426 0.260651 0.136596 0.184773 0.211300 0.227394 0.236316 0.122819 0.163572 0.185716 0.199150 0.206633 0.103732 0.135329 0.152404 0.162809 0.168649 0.073490 0.093376 0.104234 0.110915 0.114704 