Variables="X","Y","Z","GAMMA"
ZONE T="WING" i=6,j=51,k=1, ZONETYPE=Ordered
DATAPACKING=BLOCK
VARLOCATION=([4]=CELLCENTERED)
0.000000 0.200000 0.400000 0.600000 0.800000 1.000000 0.000000 0.200000 0.400000 0.600000 0.800000 1.000000 0.000000 0.200000 0.400000 0.600000 0.800000 1.000000 0.000000 0.200000 0.400000 0.600000 0.800000 1.000000 0.000000 0.200000 0.400000 0.600000 0.800000 1.000000 0.000000 0.200000 0.400000 0.600000 0.800000 1.000000 0.000000 0.200000 0.400000 0.600000 0.800000 1.000000 0.000000 0.200000 0.400000 0.600000 0.800000 1.000000 0.000000 0.200000 0.400000 0.600000 0.800000 1.000000 0.000000 0.200000 0.400000 0.600000 0.800000 1.000000 0.000000 0.200000 0.400000 0.600000 0.800000 1.000000 0.000000 0.200000 0.400000 0.600000 0.800000 1.000000 0.000000 0.200000 0.400000 0.600000 0.800000 1.000000 0.000000 0.200000 0.400000 0.600000 0.800000 1.000000 0.000000 0.200000 0.400000 0.600000 0.800000 1.000000 0.000000 0.200000 0.400000 0.600000 0.800000 1.000000 0.000000 0.200000 0.400000 0.600000 0.800000 1.000000 0.000000 0.200000 0.400000 0.600000 0.800000 1.000000 0.000000 0.200000 0.400000 0.600000 0.800000 1.000000 0.000000 0.200000 0.400000 0.600000 0.800000 1.000000 0.000000 0.200000 0.400000 0.600000 0.800000 1.000000 0.000000 0.200000 0.400000 0.600000 0.800000 1.000000 0.000000 0.200000 0.400000 0.600000 0.800000 1.000000 0.000000 0.200000 0.400000 0.600000 0.800000 1.000000 0.000000 0.200000 0.400000 0.600000 0.800000 1.000000 0.000000 0.200000 0.400000 0.600000 0.800000 1.000000 0.000000 0.200000 0.400000 0.600000 0.800000 1.000000 0.000000 0.200000 0.400000 0.600000 0.800000 1.000000 0.000000 0.200000 0.400000 0.600000 0.800000 1.000000 0.000000 0.200000 0.400000 0.600000 0.800000 1.000000 0.000000 0.200000 0.400000 0.600000 0.800000 1.000000 0.000000 0.200000 0.400000 0.600000 0.800000 1.000000 0.000000 0.200000 0.400000 0.600000 0.800000 1.000000 0.000000 0.200000 0.400000 0.600000 0.800000 1.000000 0.000000 0.200000 0.400000 0.600000 0.800000 1.000000 0.000000 0.200000 0.400000 0.600000 0.800000 1.000000 0.000000 0.200000 0.400000 0.600000 0.800000 1.000000 0.000000 0.200000 0.400000 0.600000 0.800000 1.000000 0.000000 0.200000 0.400000 0.600000 0.800000 1.000000 0.000000 0.200000 0.400000 0.600000 0.800000 1.000000 0.000000 0.200000 0.400000 0.600000 0.800000 1.000000 0.000000 0.200000 0.400000 0.600000 0.800000 1.000000 0.000000 0.200000 0.400000 0.600000 0.800000 1.000000 0.000000 0.200000 0.400000 0.600000 0.800000 1.000000 0.000000 0.200000 0.400000 0.600000 0.800000 1.000000 0.000000 0.200000 0.400000 0.600000 0.800000 1.000000 0.000000 0.200000 0.400000 0.600000 0.800000 1.000000 0.000000 0.200000 0.400000 0.600000 0.800000 1.000000 0.000000 0.200000 0.400000 0.600000 0.800000 1.000000 0.000000 0.200000 0.400000 0.600000 0.800000 1.000000 0.000000 0.200000 0.400000 0.600000 0.800000 1.000000
0.000000 0.000000 0.000000 0.000000 0.000000 0.000000 0.020000 0.020000 0.020000 0.020000 0.020000 0.020000 0.040000 0.040000 0.040000 0.040000 0.040000 0.040000 0.060000 0.060000 0.060000 0.060000 0.060000 0.060000 0.080000 0.080000 0.080000 0.080000 0.080000 0.080000 0.100000 0.100000 0.100000 0.100000 0.100000 0.100000 0.120000 0.120000 0.120000 0.120000 0.120000 0.120000 0.140000 0.140000 0.140000 0.140000 0.140000 0.140000 0.160000 0.160000 0.160000 0.160000 0.160000 0.160000 0.180000 0.180000 0.180000 0.180000 0.180000 0.180000 0.200000 0.200000 0.200000 0.200000 0.200000 0.200000 0.220000 0.220000 0.220000 0.220000 0.220000 0.220000 0.240000 0.240000 0.240000 0.240000 0.240000 0.240000 0.260000 0.260000 0.260000 0.260000 0.260000 0.260000 0.280000 0.280000 0.280000 0.280000 0.280000 0.280000 0.300000 0.300000 0.300000 0.300000 0.300000 0.300000 0.320000 0.320000 0.320000 0.320000 0.320000 0.320000 0.340000 0.340000 0.340000 0.340000 0.340000 0.340000 0.360000 0.360000 0.360000 0.360000 0.360000 0.360000 0.380000 0.380000 0.380000 0.380000 0.380000 0.380000 0.400000 0.400000 0.400000 0.400000 0.400000 0.400000 0.420000 0.420000 0.420000 0.420000 0.420000 0.420000 0.440000 0.440000 0.440000 0.440000 0.440000 0.440000 0.460000 0.460000 0.460000 0.460000 0.460000 0.460000 0.480000 0.480000 0.480000 0.480000 0.480000 0.480000 0.500000 0.500000 0.500000 0.500000 0.500000 0.500000 0.520000 0.520000 0.520000 0.520000 0.520000 0.520000 0.540000 0.540000 0.540000 0.540000 0.540000 0.540000 0.560000 0.560000 0.560000 0.560000 0.560000 0.560000 0.580000 0.580000 0.580000 0.580000 0.580000 0.580000 0.600000 0.600000 0.600000 0.600000 0.600000 0.600000 0.620000 0.620000 0.620000 0.620000 0.620000 0.620000 0.640000 0.640000 0.640000 0.640000 0.640000 0.640000 0.660000 0.660000 0.660000 0.660000 0.660000 0.660000 0.680000 0.680000 0.680000 0.680000 0.680000 0.680000 0.700000 0.700000 0.700000 0.700000 0.700000 0.700000 0.720000 0.720000 0.720000 0.720000 0.720000 0.720000 0.740000 0.740000 0.740000 0.740000 0.740000 0.740000 0.760000 0.760000 0.760000 0.760000 0.760000 0.760000 0.780000 0.780000 0.780000 0.780000 0.780000 0.780000 0.800000 0.800000 0.800000 0.800000 0.800000 0.800000 0.820000 0.820000 0.820000 0.820000 0.820000 0.820000 0.840000 0.840000 0.840000 0.840000 0.840000 0.840000 0.860000 0.860000 0.860000 0.860000 0.860000 0.860000 0.880000 0.880000 0.880000 0.880000 0.880000 0.880000 0.900000 0.900000 0.900000 0.900000 0.900000 0.900000 0.920000 0.920000 0.920000 0.920000 0.920000 0.920000 0.940000 0.940000 0.940000 0.940000 0.940000 0.940000 0.960000 0.960000 0.960000 0.960000 0.960000 0.960000 0.980000 0.980000 0.980000 0.980000 0.980000 0.980000 1.000000 1.000000 1.000000 1.000000 1.000000 1.000000
0.000000 0.000000 0.000000 0.000000 0.000000 0.000000 0.000000 0.000000 0.000000 0.000000 0.000000 0.000000 0.000000 0.000000 0.000000 0.000000 0.000000 0.000000 0.000000 0.000000 0.000000 0.000000 0.000000 0.000000 0.000000 0.000000 0.000000 0.000000 0.000000 0.000000 0.000000 0.000000 0.000000 0.000000 0.000000 0.000000 0.000000 0.000000 0.000000 0.000000 0.000000 0.000000 0.000000 0.000000 0.000000 0.000000 0.000000 0.000000 0.000000 0.000000 0.000000 0.000000 0.000000 0.000000 0.000000 0.000000 0.000000 0.000000 0.000000 0.000000 0.000000 0.000000 0.000000 0.000000 0.000000 0.000000 0.000000 0.000000 0.000000 0.000000 0.000000 0.000000 0.000000 0.000000 0.000000 0.000000 0.000000 0.000000 0.000000 0.000000 0.000000 0.000000 0.000000 0.000000 0.000000 0.000000 0.000000 0.000000 0.000000 0.000000 0.000000 0.000000 0.000000 0.000000 0.000000 0.000000 0.000000 0.000000 0.000000 0.000000 0.000000 0.000000 0.000000 0.000000 0.000000 0.000000 0.000000 0.000000 0.000000 0.000000 0.000000 0.000000 0.000000 0.000000 0.000000 0.000000 0.000000 0.000000 0.000000 0.000000 0.000000 0.000000 0.000000 0.000000 0.000000 0.000000 0.000000 0.000000 0.000000 0.000000 0.000000 0.000000 0.000000 0.000000 0.000000 0.000000 0.000000 0.000000 0.000000 0.000000 0.000000 0.000000 0.000000 0.000000 0.000000 0.000000 0.000000 0.000000 0.000000 0.000000 0.000000 0.000000 0.000000 0.000000 0.000000 0.000000 0.000000 0.000000 0.000000 0.000000 0.000000 0.000000 0.000000 0.000000 0.000000 0.000000 0.000000 0.000000 0.000000 0.000000 0.000000 0.000000 0.000000 0.000000 0.000000 0.000000 0.000000 0.000000 0.000000 0.000000 0.000000 0.000000 0.000000 0.000000 0.000000 0.000000 0.000000 0.000000 0.000000 0.000000 0.000000 0.000000 0.000000 0.000000 0.000000 0.000000 0.000000 0.000000 0.000000 0.000000 0.000000 0.000000 0.000000 0.000000 0.000000 0.000000 0.000000 0.000000 0.000000 0.000000 0.000000 0.000000 0.000000 0.000000 0.000000 0.000000 0.000000 0.000000 0.000000 0.000000 0.000000 0.000000 0.000000 0.000000 0.000000 0.000000 0.000000 0.000000 0.000000 0.000000 0.000000 0.000000 0.000000 0.000000 0.000000 0.000000 0.000000 0.000000 0.000000 0.000000 0.000000 0.000000 0.000000 0.000000 0.000000 0.000000 0.000000 0.000000 0.000000 0.000000 0.000000 0.000000 0.000000 0.000000 0.000000 0.000000 0.000000 0.000000 0.000000 0.000000 0.000000 0.000000 0.000000 0.000000 0.000000 0.000000 0.000000 0.000000 0.000000 0.000000 0.000000 0.000000 0.000000 0.000000 0.000000 0.000000 0.000000 0.000000 0.000000 0.000000 0.000000 0.000000 0.000000 0.000000 0.000000 0.000000 0.000000 0.000000 0.000000 0.000000 0.000000 0.000000 0.000000 0.000000 0.000000 0.000000 0.000000 0.000000 0.000000 0.000000 0.000000 0.000000 0.000000 0.000000 0.000000 0.000000
0.036820 0.051467 0.059933 0.065073 0.067857 0.036811 0.051452 0.059913 0.065051 0.067833 0.036792 0.051421 0.059875 0.065007 0.067786 0.036763 0.051376 0.059817 0.064941 0.067715 0.036725 0.051315 0.059740 0.064852 0.067620 0.036677 0.051238 0.059643 0.064742 0.067502 0.036619 0.051146 0.059526 0.064608 0.067359 0.036551 0.051039 0.059390 0.064452 0.067192 0.036473 0.050915 0.059233 0.064273 0.067000 0.036385 0.050775 0.059055 0.064070 0.066783 0.036287 0.050618 0.058857 0.063843 0.066541 0.036178 0.050444 0.058637 0.063592 0.066273 0.036057 0.050253 0.058395 0.063317 0.065978 0.035926 0.050045 0.058131 0.063016 0.065656 0.035783 0.049818 0.057844 0.062689 0.065307 0.035629 0.049572 0.057534 0.062335 0.064930 0.035462 0.049307 0.057199 0.061955 0.064524 0.035283 0.049022 0.056839 0.061546 0.064088 0.035090 0.048716 0.056454 0.061108 0.063621 0.034884 0.048388 0.056041 0.060640 0.063122 0.034664 0.048038 0.055601 0.060141 0.062591 0.034429 0.047664 0.055132 0.059610 0.062026 0.034178 0.047266 0.054633 0.059045 0.061425 0.033911 0.046842 0.054102 0.058445 0.060788 0.033626 0.046392 0.053538 0.057809 0.060113 0.033324 0.045912 0.052939 0.057134 0.059398 0.033002 0.045402 0.052304 0.056420 0.058640 0.032659 0.044861 0.051630 0.055663 0.057839 0.032295 0.044285 0.050916 0.054861 0.056991 0.031906 0.043672 0.050158 0.054013 0.056094 0.031492 0.043021 0.049353 0.053114 0.055145 0.031051 0.042327 0.048499 0.052162 0.054141 0.030579 0.041589 0.047593 0.051152 0.053077 0.030074 0.040801 0.046629 0.050081 0.051950 0.029533 0.039959 0.045603 0.048945 0.050755 0.028952 0.039059 0.044510 0.047736 0.049486 0.028327 0.038094 0.043343 0.046449 0.048136 0.027650 0.037058 0.042095 0.045076 0.046698 0.026917 0.035941 0.040758 0.043608 0.045162 0.026119 0.034735 0.039320 0.042034 0.043517 0.025245 0.033426 0.037768 0.040341 0.041749 0.024283 0.032000 0.036087 0.038511 0.039842 0.023215 0.030437 0.034255 0.036523 0.037772 0.022020 0.028711 0.032245 0.034348 0.035510 0.020668 0.026786 0.030019 0.031947 0.033016 0.019113 0.024613 0.027523 0.029262 0.030231 0.017291 0.022115 0.024673 0.026207 0.027065 0.015091 0.019161 0.021328 0.022631 0.023365 0.012296 0.015495 0.017207 0.018240 0.018825 0.008351 0.010441 0.011568 0.012250 0.012639 