Variables="X","Y","Z","GAMMA"
ZONE T="WING" i=6,j=51,k=1, ZONETYPE=Ordered
DATAPACKING=BLOCK
VARLOCATION=([4]=CELLCENTERED)
0.000000 0.200000 0.400000 0.600000 0.800000 1.000000 0.014004 0.211604 0.409204 0.606804 0.804404 1.002004 0.028008 0.223208 0.418408 0.613608 0.808808 1.004008 0.042012 0.234812 0.427612 0.620412 0.813212 1.006012 0.056017 0.246417 0.436817 0.627217 0.817617 1.008017 0.070021 0.258021 0.446021 0.634021 0.822021 1.010021 0.084025 0.269625 0.455225 0.640825 0.826425 1.012025 0.098029 0.281229 0.464429 0.647629 0.830829 1.014029 0.112033 0.292833 0.473633 0.654433 0.835233 1.016033 0.126037 0.304437 0.482837 0.661237 0.839637 1.018037 0.140042 0.316042 0.492042 0.668042 0.844042 1.020042 0.154046 0.327646 0.501246 0.674846 0.848446 1.022046 0.168050 0.339250 0.510450 0.681650 0.852850 1.024050 0.182054 0.350854 0.519654 0.688454 0.857254 1.026054 0.196058 0.362458 0.528858 0.695258 0.861658 1.028058 0.210062 0.374062 0.538062 0.702062 0.866062 1.030062 0.224066 0.385666 0.547266 0.708866 0.870466 1.032066 0.238071 0.397271 0.556471 0.715671 0.874871 1.034071 0.252075 0.408875 0.565675 0.722475 0.879275 1.036075 0.266079 0.420479 0.574879 0.729279 0.883679 1.038079 0.280083 0.432083 0.584083 0.736083 0.888083 1.040083 0.294087 0.443687 0.593287 0.742887 0.892487 1.042087 0.308091 0.455291 0.602491 0.749691 0.896891 1.044091 0.322095 0.466895 0.611695 0.756495 0.901295 1.046095 0.336100 0.478500 0.620900 0.763300 0.905700 1.048100 0.350104 0.490104 0.630104 0.770104 0.910104 1.050104 0.364108 0.501708 0.639308 0.776908 0.914508 1.052108 0.378112 0.513312 0.648512 0.783712 0.918912 1.054112 0.392116 0.524916 0.657716 0.790516 0.923316 1.056116 0.406120 0.536520 0.666920 0.797320 0.927720 1.058120 0.420125 0.548125 0.676125 0.804125 0.932125 1.060125 0.434129 0.559729 0.685329 0.810929 0.936529 1.062129 0.448133 0.571333 0.694533 0.817733 0.940933 1.064133 0.462137 0.582937 0.703737 0.824537 0.945337 1.066137 0.476141 0.594541 0.712941 0.831341 0.949741 1.068141 0.490145 0.606145 0.722145 0.838145 0.954145 1.070145 0.504149 0.617749 0.731349 0.844949 0.958549 1.072149 0.518154 0.629354 0.740554 0.851754 0.962954 1.074154 0.532158 0.640958 0.749758 0.858558 0.967358 1.076158 0.546162 0.652562 0.758962 0.865362 0.971762 1.078162 0.560166 0.664166 0.768166 0.872166 0.976166 1.080166 0.574170 0.675770 0.777370 0.878970 0.980570 1.082170 0.588174 0.687374 0.786574 0.885774 0.984974 1.084174 0.602178 0.698978 0.795778 0.892578 0.989378 1.086178 0.616183 0.710583 0.804983 0.899383 0.993783 1.088183 0.630187 0.722187 0.814187 0.906187 0.998187 1.090187 0.644191 0.733791 0.823391 0.912991 1.002591 1.092191 0.658195 0.745395 0.832595 0.919795 1.006995 1.094195 0.672199 0.756999 0.841799 0.926599 1.011399 1.096199 0.686203 0.768603 0.851003 0.933403 1.015803 1.098203 0.700208 0.780208 0.860208 0.940208 1.020208 1.100208
0.000000 0.000000 0.000000 0.000000 0.000000 0.000000 0.020000 0.020000 0.020000 0.020000 0.020000 0.020000 0.040000 0.040000 0.040000 0.040000 0.040000 0.040000 0.060000 0.060000 0.060000 0.060000 0.060000 0.060000 0.080000 0.080000 0.080000 0.080000 0.080000 0.080000 0.100000 0.100000 0.100000 0.100000 0.100000 0.100000 0.120000 0.120000 0.120000 0.120000 0.120000 0.120000 0.140000 0.140000 0.140000 0.140000 0.140000 0.140000 0.160000 0.160000 0.160000 0.160000 0.160000 0.160000 0.180000 0.180000 0.180000 0.180000 0.180000 0.180000 0.200000 0.200000 0.200000 0.200000 0.200000 0.200000 0.220000 0.220000 0.220000 0.220000 0.220000 0.220000 0.240000 0.240000 0.240000 0.240000 0.240000 0.240000 0.260000 0.260000 0.260000 0.260000 0.260000 0.260000 0.280000 0.280000 0.280000 0.280000 0.280000 0.280000 0.300000 0.300000 0.300000 0.300000 0.300000 0.300000 0.320000 0.320000 0.320000 0.320000 0.320000 0.320000 0.340000 0.340000 0.340000 0.340000 0.340000 0.340000 0.360000 0.360000 0.360000 0.360000 0.360000 0.360000 0.380000 0.380000 0.380000 0.380000 0.380000 0.380000 0.400000 0.400000 0.400000 0.400000 0.400000 0.400000 0.420000 0.420000 0.420000 0.420000 0.420000 0.420000 0.440000 0.440000 0.440000 0.440000 0.440000 0.440000 0.460000 0.460000 0.460000 0.460000 0.460000 0.460000 0.480000 0.480000 0.480000 0.480000 0.480000 0.480000 0.500000 0.500000 0.500000 0.500000 0.500000 0.500000 0.520000 0.520000 0.520000 0.520000 0.520000 0.520000 0.540000 0.540000 0.540000 0.540000 0.540000 0.540000 0.560000 0.560000 0.560000 0.560000 0.560000 0.560000 0.580000 0.580000 0.580000 0.580000 0.580000 0.580000 0.600000 0.600000 0.600000 0.600000 0.600000 0.600000 0.620000 0.620000 0.620000 0.620000 0.620000 0.620000 0.640000 0.640000 0.640000 0.640000 0.640000 0.640000 0.660000 0.660000 0.660000 0.660000 0.660000 0.660000 0.680000 0.680000 0.680000 0.680000 0.680000 0.680000 0.700000 0.700000 0.700000 0.700000 0.700000 0.700000 0.720000 0.720000 0.720000 0.720000 0.720000 0.720000 0.740000 0.740000 0.740000 0.740000 0.740000 0.740000 0.760000 0.760000 0.760000 0.760000 0.760000 0.760000 0.780000 0.780000 0.780000 0.780000 0.780000 0.780000 0.800000 0.800000 0.800000 0.800000 0.800000 0.800000 0.820000 0.820000 0.820000 0.820000 0.820000 0.820000 0.840000 0.840000 0.840000 0.840000 0.840000 0.840000 0.860000 0.860000 0.860000 0.860000 0.860000 0.860000 0.880000 0.880000 0.880000 0.880000 0.880000 0.880000 0.900000 0.900000 0.900000 0.900000 0.900000 0.900000 0.920000 0.920000 0.920000 0.920000 0.920000 0.920000 0.940000 0.940000 0.940000 0.940000 0.940000 0.940000 0.960000 0.960000 0.960000 0.960000 0.960000 0.960000 0.980000 0.980000 0.980000 0.980000 0.980000 0.980000 1.000000 1.000000 1.000000 1.000000 1.000000 1.000000
0.000000 0.000000 0.000000 0.000000 0.000000 0.000000 0.000000 0.000000 0.000000 0.000000 0.000000 0.000000 0.000000 0.000000 0.000000 0.000000 0.000000 0.000000 0.000000 0.000000 0.000000 0.000000 0.000000 0.000000 0.000000 0.000000 0.000000 0.000000 0.000000 0.000000 0.000000 0.000000 0.000000 0.000000 0.000000 0.000000 0.000000 0.000000 0.000000 0.000000 0.000000 0.000000 0.000000 0.000000 0.000000 0.000000 0.000000 0.000000 0.000000 0.000000 0.000000 0.000000 0.000000 0.000000 0.000000 0.000000 0.000000 0.000000 0.000000 0.000000 0.000000 0.000000 0.000000 0.000000 0.000000 0.000000 0.000000 0.000000 0.000000 0.000000 0.000000 0.000000 0.000000 0.000000 0.000000 0.000000 0.000000 0.000000 0.000000 0.000000 0.000000 0.000000 0.000000 0.000000 0.000000 0.000000 0.000000 0.000000 0.000000 0.000000 0.000000 0.000000 0.000000 0.000000 0.000000 0.000000 0.000000 0.000000 0.000000 0.000000 0.000000 0.000000 0.000000 0.000000 0.000000 0.000000 0.000000 0.000000 0.000000 0.000000 0.000000 0.000000 0.000000 0.000000 0.000000 0.000000 0.000000 0.000000 0.000000 0.000000 0.000000 0.000000 0.000000 0.000000 0.000000 0.000000 0.000000 0.000000 0.000000 0.000000 0.000000 0.000000 0.000000 0.000000 0.000000 0.000000 0.000000 0.000000 0.000000 0.000000 0.000000 0.000000 0.000000 0.000000 0.000000 0.000000 0.000000 0.000000 0.000000 0.000000 0.000000 0.000000 0.000000 0.000000 0.000000 0.000000 0.000000 0.000000 0.000000 0.000000 0.000000 0.000000 0.000000 0.000000 0.000000 0.000000 0.000000 0.000000 0.000000 0.000000 0.000000 0.000000 0.000000 0.000000 0.000000 0.000000 0.000000 0.000000 0.000000 0.000000 0.000000 0.000000 0.000000 0.000000 0.000000 0.000000 0.000000 0.000000 0.000000 0.000000 0.000000 0.000000 0.000000 0.000000 0.000000 0.000000 0.000000 0.000000 0.000000 0.000000 0.000000 0.000000 0.000000 0.000000 0.000000 0.000000 0.000000 0.000000 0.000000 0.000000 0.000000 0.000000 0.000000 0.000000 0.000000 0.000000 0.000000 0.000000 0.000000 0.000000 0.000000 0.000000 0.000000 0.000000 0.000000 0.000000 0.000000 0.000000 0.000000 0.000000 0.000000 0.000000 0.000000 0.000000 0.000000 0.000000 0.000000 0.000000 0.000000 0.000000 0.000000 0.000000 0.000000 0.000000 0.000000 0.000000 0.000000 0.000000 0.000000 0.000000 0.000000 0.000000 0.000000 0.000000 0.000000 0.000000 0.000000 0.000000 0.000000 0.000000 0.000000 0.000000 0.000000 0.000000 0.000000 0.000000 0.000000 0.000000 0.000000 0.000000 0.000000 0.000000 0.000000 0.000000 0.000000 0.000000 0.000000 0.000000 0.000000 0.000000 0.000000 0.000000 0.000000 0.000000 0.000000 0.000000 0.000000 0.000000 0.000000 0.000000 0.000000 0.000000 0.000000 0.000000 0.000000 0.000000 0.000000 0.000000 0.000000 0.000000 0.000000 0.000000 0.000000 0.000000 0.000000 0.000000
0.095659 0.151594 0.190456 0.217015 0.232624 0.097151 0.152472 0.190903 0.217172 0.232600 0.098930 0.153562 0.191442 0.217326 0.232511 0.100703 0.154672 0.191966 0.217428 0.232342 0.102345 0.155714 0.192426 0.217455 0.232090 0.103806 0.156644 0.192795 0.217393 0.231750 0.105071 0.157442 0.193061 0.217238 0.231320 0.106145 0.158101 0.193216 0.216985 0.230799 0.107037 0.158619 0.193258 0.216631 0.230185 0.107763 0.158999 0.193186 0.216177 0.229478 0.108336 0.159245 0.193000 0.215621 0.228676 0.108768 0.159361 0.192701 0.214962 0.227779 0.109070 0.159352 0.192290 0.214201 0.226784 0.109252 0.159222 0.191769 0.213337 0.225691 0.109324 0.158976 0.191138 0.212370 0.224499 0.109292 0.158617 0.190399 0.211298 0.223205 0.109162 0.158148 0.189552 0.210122 0.221809 0.108941 0.157574 0.188598 0.208840 0.220308 0.108633 0.156896 0.187538 0.207450 0.218701 0.108242 0.156117 0.186370 0.205953 0.216984 0.107771 0.155238 0.185096 0.204345 0.215156 0.107224 0.154260 0.183714 0.202624 0.213213 0.106603 0.153185 0.182224 0.200788 0.211152 0.105909 0.152013 0.180623 0.198835 0.208970 0.105144 0.150743 0.178909 0.196760 0.206661 0.104309 0.149376 0.177081 0.194559 0.204221 0.103405 0.147909 0.175134 0.192228 0.201645 0.102432 0.146341 0.173065 0.189761 0.198925 0.101388 0.144670 0.170869 0.187151 0.196056 0.100274 0.142891 0.168539 0.184391 0.193027 0.099087 0.141001 0.166069 0.181472 0.189831 0.097826 0.138994 0.163450 0.178384 0.186456 0.096488 0.136862 0.160672 0.175115 0.182889 0.095068 0.134599 0.157722 0.171650 0.179116 0.093562 0.132192 0.154586 0.167973 0.175120 0.091964 0.129628 0.151245 0.164064 0.170880 0.090265 0.126892 0.147677 0.159900 0.166373 0.088454 0.123961 0.143856 0.155452 0.161570 0.086519 0.120809 0.139749 0.150687 0.156437 0.084442 0.117401 0.135314 0.145562 0.150934 0.082198 0.113693 0.130499 0.140026 0.145009 0.079754 0.109626 0.125240 0.134014 0.138597 0.077063 0.105118 0.119451 0.127443 0.131617 0.074057 0.100060 0.113019 0.120203 0.123960 0.070632 0.094297 0.105793 0.112144 0.115478 0.066621 0.087605 0.097554 0.103055 0.105956 0.061739 0.079644 0.087975 0.092607 0.095067 0.055460 0.069855 0.076511 0.080252 0.082257 0.046708 0.057185 0.062101 0.064910 0.066432 0.032797 0.038978 0.041992 0.043747 0.044709 