Variables="X","Y","Z","GAMMA"
ZONE T="WING" i=6,j=51,k=1, ZONETYPE=Ordered
DATAPACKING=BLOCK
VARLOCATION=([4]=CELLCENTERED)
0.000000 0.200000 0.400000 0.600000 0.800000 1.000000 0.140042 0.337641 0.535241 0.732841 0.930441 1.128041 0.280083 0.475282 0.670481 0.865681 1.060880 1.256079 0.420125 0.612923 0.805721 0.998519 1.191318 1.384116 0.560166 0.750563 0.940960 1.131357 1.321754 1.512151 0.700208 0.888203 1.076198 1.264194 1.452189 1.640185 0.840249 1.025843 1.211436 1.397030 1.582623 1.768216 0.980291 1.163482 1.346673 1.529864 1.713056 1.896247 1.120332 1.301121 1.481910 1.662698 1.843487 2.024276 1.260374 1.438759 1.617145 1.795531 1.973917 2.152303 1.400415 1.576398 1.752381 1.928364 2.104346 2.280329 1.540457 1.714036 1.887616 2.061195 2.234775 2.408354 1.680498 1.851674 2.022850 2.194026 2.365202 2.536378 1.820540 1.989312 2.158084 2.326856 2.495628 2.664401 1.960581 2.126949 2.293318 2.459686 2.626054 2.792422 2.100623 2.264587 2.428551 2.592515 2.756479 2.920443 2.240664 2.402224 2.563783 2.725343 2.886903 3.048463 2.380706 2.539861 2.699016 2.858171 3.017326 3.176481 2.520747 2.677498 2.834248 2.990999 3.147749 3.304500 2.660789 2.815134 2.969480 3.123826 3.278171 3.432517 2.800830 2.952771 3.104712 3.256652 3.408593 3.560534 2.940872 3.090407 3.239943 3.389479 3.539014 3.688550 3.080913 3.228044 3.375174 3.522305 3.669435 3.816566 3.220955 3.365680 3.510405 3.655131 3.799856 3.944581 3.360996 3.503316 3.645636 3.787956 3.930276 4.072596 3.501038 3.640952 3.780867 3.920782 4.060697 4.200611 3.641079 3.778589 3.916098 4.053607 4.191117 4.328626 3.781121 3.916225 4.051329 4.186433 4.321536 4.456640 3.921162 4.053861 4.186559 4.319258 4.451956 4.584655 4.061204 4.191497 4.321790 4.452083 4.582376 4.712669 4.201245 4.329133 4.457021 4.584908 4.712796 4.840684 4.341287 4.466769 4.592251 4.717734 4.843216 4.968699 4.481328 4.604405 4.727482 4.850559 4.973636 5.096713 4.621370 4.742042 4.862713 4.983385 5.104057 5.224729 4.761411 4.879678 4.997944 5.116211 5.234478 5.352744 4.901453 5.017314 5.133176 5.249037 5.364899 5.480760 5.041494 5.154951 5.268407 5.381864 5.495320 5.608777 5.181536 5.292587 5.403639 5.514691 5.625742 5.736794 5.321577 5.430224 5.538871 5.647518 5.756165 5.864812 5.461619 5.567861 5.674103 5.780346 5.886588 5.992830 5.601660 5.705498 5.809336 5.913174 6.017012 6.120850 5.741702 5.843135 5.944569 6.046003 6.147436 6.248870 5.881743 5.980773 6.079802 6.178832 6.277861 6.376891 6.021785 6.118410 6.215036 6.311662 6.408287 6.504913 6.161826 6.256048 6.350270 6.444492 6.538714 6.632936 6.301868 6.393686 6.485505 6.577323 6.669142 6.760960 6.441909 6.531325 6.620740 6.710155 6.799570 6.888986 6.581951 6.668963 6.755975 6.842988 6.930000 7.017012 6.721992 6.806602 6.891212 6.975821 7.060431 7.145040 6.862034 6.944241 7.026448 7.108656 7.190863 7.273070 7.002075 7.081881 7.161686 7.241491 7.321296 7.401101
0.000000 0.000000 0.000000 0.000000 0.000000 0.000000 0.200000 0.200000 0.200000 0.200000 0.200000 0.200000 0.400000 0.400000 0.400000 0.400000 0.400000 0.400000 0.600000 0.600000 0.600000 0.600000 0.600000 0.600000 0.800000 0.800000 0.800000 0.800000 0.800000 0.800000 1.000000 1.000000 1.000000 1.000000 1.000000 1.000000 1.200000 1.200000 1.200000 1.200000 1.200000 1.200000 1.400000 1.400000 1.400000 1.400000 1.400000 1.400000 1.600000 1.600000 1.600000 1.600000 1.600000 1.600000 1.800000 1.800000 1.800000 1.800000 1.800000 1.800000 2.000000 2.000000 2.000000 2.000000 2.000000 2.000000 2.200000 2.200000 2.200000 2.200000 2.200000 2.200000 2.400000 2.400000 2.400000 2.400000 2.400000 2.400000 2.600000 2.600000 2.600000 2.600000 2.600000 2.600000 2.800000 2.800000 2.800000 2.800000 2.800000 2.800000 3.000000 3.000000 3.000000 3.000000 3.000000 3.000000 3.200000 3.200000 3.200000 3.200000 3.200000 3.200000 3.400000 3.400000 3.400000 3.400000 3.400000 3.400000 3.600000 3.600000 3.600000 3.600000 3.600000 3.600000 3.800000 3.800000 3.800000 3.800000 3.800000 3.800000 4.000000 4.000000 4.000000 4.000000 4.000000 4.000000 4.200000 4.200000 4.200000 4.200000 4.200000 4.200000 4.400000 4.400000 4.400000 4.400000 4.400000 4.400000 4.600000 4.600000 4.600000 4.600000 4.600000 4.600000 4.800000 4.800000 4.800000 4.800000 4.800000 4.800000 5.000000 5.000000 5.000000 5.000000 5.000000 5.000000 5.200000 5.200000 5.200000 5.200000 5.200000 5.200000 5.400000 5.400000 5.400000 5.400000 5.400000 5.400000 5.600000 5.600000 5.600000 5.600000 5.600000 5.600000 5.800000 5.800000 5.800000 5.800000 5.800000 5.800000 6.000000 6.000000 6.000000 6.000000 6.000000 6.000000 6.200000 6.200000 6.200000 6.200000 6.200000 6.200000 6.400000 6.400000 6.400000 6.400000 6.400000 6.400000 6.600000 6.600000 6.600000 6.600000 6.600000 6.600000 6.800000 6.800000 6.800000 6.800000 6.800000 6.800000 7.000000 7.000000 7.000000 7.000000 7.000000 7.000000 7.200000 7.200000 7.200000 7.200000 7.200000 7.200000 7.400000 7.400000 7.400000 7.400000 7.400000 7.400000 7.600000 7.600000 7.600000 7.600000 7.600000 7.600000 7.800000 7.800000 7.800000 7.800000 7.800000 7.800000 8.000000 8.000000 8.000000 8.000000 8.000000 8.000000 8.200000 8.200000 8.200000 8.200000 8.200000 8.200000 8.400000 8.400000 8.400000 8.400000 8.400000 8.400000 8.600000 8.600000 8.600000 8.600000 8.600000 8.600000 8.800000 8.800000 8.800000 8.800000 8.800000 8.800000 9.000000 9.000000 9.000000 9.000000 9.000000 9.000000 9.200000 9.200000 9.200000 9.200000 9.200000 9.200000 9.400000 9.400000 9.400000 9.400000 9.400000 9.400000 9.600000 9.600000 9.600000 9.600000 9.600000 9.600000 9.800000 9.800000 9.800000 9.800000 9.800000 9.800000 10.000000 10.000000 10.000000 10.000000 10.000000 10.000000
0.000000 0.000000 0.000000 0.000000 0.000000 0.000000 0.000000 -0.000276 -0.000552 -0.000828 -0.001104 -0.001380 0.000000 -0.000545 -0.001090 -0.001635 -0.002180 -0.002726 0.000000 -0.000808 -0.001615 -0.002423 -0.003230 -0.004038 0.000000 -0.001063 -0.002127 -0.003190 -0.004254 -0.005317 0.000000 -0.001312 -0.002625 -0.003937 -0.005250 -0.006562 0.000000 -0.001555 -0.003110 -0.004665 -0.006219 -0.007774 0.000000 -0.001791 -0.003581 -0.005372 -0.007162 -0.008953 0.000000 -0.002020 -0.004039 -0.006059 -0.008078 -0.010098 0.000000 -0.002242 -0.004484 -0.006725 -0.008967 -0.011209 0.000000 -0.002457 -0.004915 -0.007372 -0.009829 -0.012287 0.000000 -0.002666 -0.005332 -0.007999 -0.010665 -0.013331 0.000000 -0.002868 -0.005737 -0.008605 -0.011473 -0.014342 0.000000 -0.003064 -0.006128 -0.009191 -0.012255 -0.015319 0.000000 -0.003253 -0.006505 -0.009758 -0.013010 -0.016263 0.000000 -0.003435 -0.006869 -0.010304 -0.013738 -0.017173 0.000000 -0.003610 -0.007220 -0.010830 -0.014440 -0.018049 0.000000 -0.003778 -0.007557 -0.011335 -0.015114 -0.018892 0.000000 -0.003940 -0.007881 -0.011821 -0.015762 -0.019702 0.000000 -0.004096 -0.008191 -0.012287 -0.016382 -0.020478 0.000000 -0.004244 -0.008488 -0.012732 -0.016976 -0.021220 0.000000 -0.004386 -0.008772 -0.013158 -0.017543 -0.021929 0.000000 -0.004521 -0.009042 -0.013563 -0.018084 -0.022605 0.000000 -0.004649 -0.009299 -0.013948 -0.018597 -0.023247 0.000000 -0.004771 -0.009542 -0.014313 -0.019084 -0.023855 0.000000 -0.004886 -0.009772 -0.014658 -0.019544 -0.024430 0.000000 -0.004994 -0.009988 -0.014983 -0.019977 -0.024971 0.000000 -0.005096 -0.010191 -0.015287 -0.020383 -0.025479 0.000000 -0.005191 -0.010381 -0.015572 -0.020762 -0.025953 0.000000 -0.005279 -0.010557 -0.015836 -0.021115 -0.026393 0.000000 -0.005360 -0.010720 -0.016080 -0.021440 -0.026800 0.000000 -0.005435 -0.010870 -0.016304 -0.021739 -0.027174 0.000000 -0.005503 -0.011006 -0.016508 -0.022011 -0.027514 0.000000 -0.005564 -0.011128 -0.016692 -0.022256 -0.027820 0.000000 -0.005619 -0.011237 -0.016856 -0.022475 -0.028093 0.000000 -0.005667 -0.011333 -0.017000 -0.022666 -0.028333 0.000000 -0.005708 -0.011416 -0.017123 -0.022831 -0.028539 0.000000 -0.005742 -0.011484 -0.017227 -0.022969 -0.028711 0.000000 -0.005770 -0.011540 -0.017310 -0.023080 -0.028850 0.000000 -0.005791 -0.011582 -0.017373 -0.023164 -0.028955 0.000000 -0.005805 -0.011611 -0.017416 -0.023222 -0.029027 0.000000 -0.005813 -0.011626 -0.017439 -0.023252 -0.029065 0.000000 -0.005814 -0.011628 -0.017442 -0.023256 -0.029070 0.000000 -0.005808 -0.011617 -0.017425 -0.023233 -0.029042 0.000000 -0.005796 -0.011592 -0.017388 -0.023183 -0.028979 0.000000 -0.005777 -0.011553 -0.017330 -0.023107 -0.028884 0.000000 -0.005751 -0.011502 -0.017253 -0.023004 -0.028754 0.000000 -0.005718 -0.011437 -0.017155 -0.022873 -0.028592 0.000000 -0.005679 -0.011358 -0.017037 -0.022716 -0.028395 0.000000 -0.005633 -0.011266 -0.016899 -0.022533 -0.028166 0.000000 -0.005581 -0.011161 -0.016742 -0.022322 -0.027903
0.064210 0.098596 0.123870 0.142592 0.154547 0.072355 0.107319 0.131634 0.148882 0.159351 0.077139 0.113035 0.137186 0.153892 0.163895 0.080326 0.117061 0.141367 0.157978 0.167862 0.082654 0.120120 0.144700 0.161392 0.171287 0.084471 0.122577 0.147460 0.164294 0.174249 0.085955 0.124621 0.149799 0.166794 0.176826 0.087202 0.126360 0.151812 0.168965 0.179076 0.088268 0.127859 0.153559 0.170860 0.181049 0.089191 0.129160 0.155084 0.172519 0.182779 0.089991 0.130295 0.156416 0.173972 0.184297 0.090688 0.131283 0.157578 0.175242 0.185624 0.091291 0.132140 0.158587 0.176345 0.186778 0.091812 0.132879 0.159457 0.177296 0.187772 0.092255 0.133509 0.160199 0.178106 0.188619 0.092627 0.134037 0.160820 0.178784 0.189327 0.092933 0.134470 0.161327 0.179337 0.189904 0.093175 0.134811 0.161727 0.179771 0.190356 0.093356 0.135066 0.162023 0.180091 0.190686 0.093479 0.135236 0.162219 0.180299 0.190901 0.093545 0.135325 0.162317 0.180401 0.191002 0.093556 0.135335 0.162321 0.180398 0.190993 0.093512 0.135267 0.162233 0.180292 0.190875 0.093416 0.135123 0.162053 0.180086 0.190651 0.093268 0.134903 0.161783 0.179779 0.190322 0.093067 0.134609 0.161424 0.179374 0.189888 0.092816 0.134241 0.160977 0.178871 0.189351 0.092514 0.133799 0.160442 0.178271 0.188711 0.092160 0.133284 0.159819 0.177573 0.187968 0.091756 0.132696 0.159108 0.176778 0.187122 0.091302 0.132034 0.158309 0.175885 0.186173 0.090796 0.131299 0.157422 0.174895 0.185119 0.090238 0.130489 0.156446 0.173804 0.183961 0.089629 0.129604 0.155379 0.172614 0.182697 0.088966 0.128642 0.154221 0.171321 0.181323 0.088249 0.127601 0.152967 0.169922 0.179839 0.087477 0.126480 0.151617 0.168416 0.178239 0.086647 0.125275 0.150165 0.166796 0.176518 0.085756 0.123981 0.148607 0.165056 0.174670 0.084801 0.122593 0.146933 0.163187 0.172684 0.083775 0.121100 0.145132 0.161174 0.170544 0.082669 0.119490 0.143186 0.158996 0.168226 0.081471 0.117740 0.141067 0.156620 0.165693 0.080156 0.115815 0.138728 0.153989 0.162882 0.078687 0.113652 0.136085 0.151002 0.159678 0.076991 0.111133 0.132980 0.147463 0.155860 0.074922 0.108013 0.129076 0.142955 0.150948 0.072141 0.103716 0.123570 0.136464 0.143777 0.067722 0.096610 0.114145 0.125083 0.131040 0.058078 0.080209 0.091957 0.098500 0.101770 