Variables="X","Y","Z","GAMMA"
ZONE T="WING" i=6,j=51,k=1, ZONETYPE=Ordered
DATAPACKING=BLOCK
VARLOCATION=([4]=CELLCENTERED)
0.000000 0.200000 0.400000 0.600000 0.800000 1.000000 0.125574 0.325574 0.525574 0.725574 0.925574 1.125574 0.251147 0.451147 0.651147 0.851147 1.051147 1.251147 0.376721 0.576721 0.776721 0.976721 1.176721 1.376721 0.502295 0.702295 0.902295 1.102295 1.302295 1.502295 0.627868 0.827868 1.027868 1.227868 1.427868 1.627868 0.753442 0.953442 1.153442 1.353442 1.553442 1.753442 0.879016 1.079016 1.279016 1.479016 1.679016 1.879016 1.004589 1.204589 1.404589 1.604589 1.804589 2.004589 1.130163 1.330163 1.530163 1.730163 1.930163 2.130163 1.255737 1.455737 1.655737 1.855737 2.055737 2.255737 1.381311 1.581311 1.781311 1.981311 2.181311 2.381311 1.506884 1.706884 1.906884 2.106884 2.306884 2.506884 1.632458 1.832458 2.032458 2.232458 2.432458 2.632458 1.758032 1.958032 2.158032 2.358032 2.558032 2.758032 1.883605 2.083605 2.283605 2.483605 2.683605 2.883605 2.009179 2.209179 2.409179 2.609179 2.809179 3.009179 2.134753 2.334753 2.534753 2.734753 2.934753 3.134753 2.260326 2.460326 2.660326 2.860326 3.060326 3.260326 2.385900 2.585900 2.785900 2.985900 3.185900 3.385900 2.511474 2.711474 2.911474 3.111474 3.311474 3.511474 2.637047 2.837047 3.037047 3.237047 3.437047 3.637047 2.762621 2.962621 3.162621 3.362621 3.562621 3.762621 2.888195 3.088195 3.288195 3.488195 3.688195 3.888195 3.013768 3.213768 3.413768 3.613768 3.813768 4.013768 3.139342 3.339342 3.539342 3.739342 3.939342 4.139342 3.264916 3.464916 3.664916 3.864916 4.064916 4.264916 3.390489 3.590489 3.790489 3.990489 4.190489 4.390489 3.516063 3.716063 3.916063 4.116063 4.316063 4.516063 3.641637 3.841637 4.041637 4.241637 4.441637 4.641637 3.767211 3.967211 4.167211 4.367211 4.567211 4.767211 3.892784 4.092784 4.292784 4.492784 4.692784 4.892784 4.018358 4.218358 4.418358 4.618358 4.818358 5.018358 4.143932 4.343932 4.543932 4.743932 4.943932 5.143932 4.269505 4.469505 4.669505 4.869505 5.069505 5.269505 4.395079 4.595079 4.795079 4.995079 5.195079 5.395079 4.520653 4.720653 4.920653 5.120653 5.320653 5.520653 4.646226 4.846226 5.046226 5.246226 5.446226 5.646226 4.771800 4.971800 5.171800 5.371800 5.571800 5.771800 4.897374 5.097374 5.297374 5.497374 5.697374 5.897374 5.022947 5.222947 5.422947 5.622947 5.822947 6.022947 5.148521 5.348521 5.548521 5.748521 5.948521 6.148521 5.274095 5.474095 5.674095 5.874095 6.074095 6.274095 5.399668 5.599668 5.799668 5.999668 6.199668 6.399668 5.525242 5.725242 5.925242 6.125242 6.325242 6.525242 5.650816 5.850816 6.050816 6.250816 6.450816 6.650816 5.776389 5.976389 6.176389 6.376389 6.576389 6.776389 5.901963 6.101963 6.301963 6.501963 6.701963 6.901963 6.027537 6.227537 6.427537 6.627537 6.827537 7.027537 6.153110 6.353110 6.553110 6.753110 6.953110 7.153110 6.278684 6.478684 6.678684 6.878684 7.078684 7.278684
0.000000 0.000000 0.000000 0.000000 0.000000 0.000000 0.072500 0.072500 0.072500 0.072500 0.072500 0.072500 0.145000 0.145000 0.145000 0.145000 0.145000 0.145000 0.217500 0.217500 0.217500 0.217500 0.217500 0.217500 0.290000 0.290000 0.290000 0.290000 0.290000 0.290000 0.362500 0.362500 0.362500 0.362500 0.362500 0.362500 0.435000 0.435000 0.435000 0.435000 0.435000 0.435000 0.507500 0.507500 0.507500 0.507500 0.507500 0.507500 0.580000 0.580000 0.580000 0.580000 0.580000 0.580000 0.652500 0.652500 0.652500 0.652500 0.652500 0.652500 0.725000 0.725000 0.725000 0.725000 0.725000 0.725000 0.797500 0.797500 0.797500 0.797500 0.797500 0.797500 0.870000 0.870000 0.870000 0.870000 0.870000 0.870000 0.942500 0.942500 0.942500 0.942500 0.942500 0.942500 1.015000 1.015000 1.015000 1.015000 1.015000 1.015000 1.087500 1.087500 1.087500 1.087500 1.087500 1.087500 1.160000 1.160000 1.160000 1.160000 1.160000 1.160000 1.232500 1.232500 1.232500 1.232500 1.232500 1.232500 1.305000 1.305000 1.305000 1.305000 1.305000 1.305000 1.377500 1.377500 1.377500 1.377500 1.377500 1.377500 1.450000 1.450000 1.450000 1.450000 1.450000 1.450000 1.522500 1.522500 1.522500 1.522500 1.522500 1.522500 1.595000 1.595000 1.595000 1.595000 1.595000 1.595000 1.667500 1.667500 1.667500 1.667500 1.667500 1.667500 1.740000 1.740000 1.740000 1.740000 1.740000 1.740000 1.812500 1.812500 1.812500 1.812500 1.812500 1.812500 1.885000 1.885000 1.885000 1.885000 1.885000 1.885000 1.957500 1.957500 1.957500 1.957500 1.957500 1.957500 2.030000 2.030000 2.030000 2.030000 2.030000 2.030000 2.102500 2.102500 2.102500 2.102500 2.102500 2.102500 2.175000 2.175000 2.175000 2.175000 2.175000 2.175000 2.247500 2.247500 2.247500 2.247500 2.247500 2.247500 2.320000 2.320000 2.320000 2.320000 2.320000 2.320000 2.392500 2.392500 2.392500 2.392500 2.392500 2.392500 2.465000 2.465000 2.465000 2.465000 2.465000 2.465000 2.537500 2.537500 2.537500 2.537500 2.537500 2.537500 2.610000 2.610000 2.610000 2.610000 2.610000 2.610000 2.682500 2.682500 2.682500 2.682500 2.682500 2.682500 2.755000 2.755000 2.755000 2.755000 2.755000 2.755000 2.827500 2.827500 2.827500 2.827500 2.827500 2.827500 2.900000 2.900000 2.900000 2.900000 2.900000 2.900000 2.972500 2.972500 2.972500 2.972500 2.972500 2.972500 3.045000 3.045000 3.045000 3.045000 3.045000 3.045000 3.117500 3.117500 3.117500 3.117500 3.117500 3.117500 3.190000 3.190000 3.190000 3.190000 3.190000 3.190000 3.262500 3.262500 3.262500 3.262500 3.262500 3.262500 3.335000 3.335000 3.335000 3.335000 3.335000 3.335000 3.407500 3.407500 3.407500 3.407500 3.407500 3.407500 3.480000 3.480000 3.480000 3.480000 3.480000 3.480000 3.552500 3.552500 3.552500 3.552500 3.552500 3.552500 3.625000 3.625000 3.625000 3.625000 3.625000 3.625000
0.000000 0.000000 0.000000 0.000000 0.000000 0.000000 0.000000 0.000000 0.000000 0.000000 0.000000 0.000000 0.000000 0.000000 0.000000 0.000000 0.000000 0.000000 0.000000 0.000000 0.000000 0.000000 0.000000 0.000000 0.000000 0.000000 0.000000 0.000000 0.000000 0.000000 0.000000 0.000000 0.000000 0.000000 0.000000 0.000000 0.000000 0.000000 0.000000 0.000000 0.000000 0.000000 0.000000 0.000000 0.000000 0.000000 0.000000 0.000000 0.000000 0.000000 0.000000 0.000000 0.000000 0.000000 0.000000 0.000000 0.000000 0.000000 0.000000 0.000000 0.000000 0.000000 0.000000 0.000000 0.000000 0.000000 0.000000 0.000000 0.000000 0.000000 0.000000 0.000000 0.000000 0.000000 0.000000 0.000000 0.000000 0.000000 0.000000 0.000000 0.000000 0.000000 0.000000 0.000000 0.000000 0.000000 0.000000 0.000000 0.000000 0.000000 0.000000 0.000000 0.000000 0.000000 0.000000 0.000000 0.000000 0.000000 0.000000 0.000000 0.000000 0.000000 0.000000 0.000000 0.000000 0.000000 0.000000 0.000000 0.000000 0.000000 0.000000 0.000000 0.000000 0.000000 0.000000 0.000000 0.000000 0.000000 0.000000 0.000000 0.000000 0.000000 0.000000 0.000000 0.000000 0.000000 0.000000 0.000000 0.000000 0.000000 0.000000 0.000000 0.000000 0.000000 0.000000 0.000000 0.000000 0.000000 0.000000 0.000000 0.000000 0.000000 0.000000 0.000000 0.000000 0.000000 0.000000 0.000000 0.000000 0.000000 0.000000 0.000000 0.000000 0.000000 0.000000 0.000000 0.000000 0.000000 0.000000 0.000000 0.000000 0.000000 0.000000 0.000000 0.000000 0.000000 0.000000 0.000000 0.000000 0.000000 0.000000 0.000000 0.000000 0.000000 0.000000 0.000000 0.000000 0.000000 0.000000 0.000000 0.000000 0.000000 0.000000 0.000000 0.000000 0.000000 0.000000 0.000000 0.000000 0.000000 0.000000 0.000000 0.000000 0.000000 0.000000 0.000000 0.000000 0.000000 0.000000 0.000000 0.000000 0.000000 0.000000 0.000000 0.000000 0.000000 0.000000 0.000000 0.000000 0.000000 0.000000 0.000000 0.000000 0.000000 0.000000 0.000000 0.000000 0.000000 0.000000 0.000000 0.000000 0.000000 0.000000 0.000000 0.000000 0.000000 0.000000 0.000000 0.000000 0.000000 0.000000 0.000000 0.000000 0.000000 0.000000 0.000000 0.000000 0.000000 0.000000 0.000000 0.000000 0.000000 0.000000 0.000000 0.000000 0.000000 0.000000 0.000000 0.000000 0.000000 0.000000 0.000000 0.000000 0.000000 0.000000 0.000000 0.000000 0.000000 0.000000 0.000000 0.000000 0.000000 0.000000 0.000000 0.000000 0.000000 0.000000 0.000000 0.000000 0.000000 0.000000 0.000000 0.000000 0.000000 0.000000 0.000000 0.000000 0.000000 0.000000 0.000000 0.000000 0.000000 0.000000 0.000000 0.000000 0.000000 0.000000 0.000000 0.000000 0.000000 0.000000 0.000000 0.000000 0.000000 0.000000 0.000000 0.000000 0.000000 0.000000 0.000000 0.000000 0.000000 0.000000 0.000000 0.000000 0.000000
0.059119 0.101126 0.136366 0.165351 0.186129 0.072126 0.115066 0.149061 0.175464 0.191856 0.081425 0.125696 0.158814 0.183032 0.197483 0.088385 0.133745 0.166138 0.188984 0.202588 0.093692 0.139867 0.171784 0.193930 0.207148 0.097788 0.144617 0.176333 0.198170 0.211214 0.101001 0.148419 0.180137 0.201872 0.214849 0.103580 0.151564 0.183403 0.205146 0.218110 0.105708 0.154237 0.186260 0.208068 0.221048 0.107510 0.156557 0.188792 0.210692 0.223705 0.109068 0.158602 0.191058 0.213063 0.226117 0.110437 0.160426 0.193100 0.215214 0.228314 0.111655 0.162066 0.194951 0.217174 0.230320 0.112748 0.163550 0.196636 0.218965 0.232157 0.113737 0.164900 0.198176 0.220606 0.233843 0.114635 0.166134 0.199587 0.222113 0.235393 0.115456 0.167264 0.200883 0.223500 0.236821 0.116208 0.168302 0.202076 0.224779 0.238138 0.116899 0.169258 0.203176 0.225959 0.239355 0.117536 0.170139 0.204192 0.227049 0.240479 0.118123 0.170954 0.205131 0.228056 0.241517 0.118665 0.171706 0.205999 0.228988 0.242477 0.119166 0.172402 0.206801 0.229848 0.243364 0.119630 0.173045 0.207542 0.230643 0.244182 0.120059 0.173640 0.208227 0.231375 0.244934 0.120455 0.174189 0.208857 0.232049 0.245625 0.120821 0.174694 0.209437 0.232665 0.246255 0.121158 0.175158 0.209967 0.233227 0.246827 0.121467 0.175583 0.210448 0.233734 0.247340 0.121749 0.175968 0.210882 0.234187 0.247794 0.122006 0.176314 0.211268 0.234585 0.248187 0.122236 0.176622 0.211605 0.234924 0.248514 0.122440 0.176889 0.211890 0.235200 0.248769 0.122617 0.177114 0.212118 0.235407 0.248944 0.122765 0.177292 0.212284 0.235534 0.249024 0.122882 0.177419 0.212378 0.235567 0.248988 0.122964 0.177486 0.212385 0.235484 0.248808 0.123005 0.177481 0.212285 0.235252 0.248437 0.122999 0.177388 0.212048 0.234823 0.247808 0.122933 0.177181 0.211627 0.234123 0.246818 0.122790 0.176822 0.210953 0.233037 0.245308 0.122546 0.176252 0.209912 0.231384 0.243029 0.122161 0.175376 0.208326 0.228875 0.239604 0.121573 0.174039 0.205893 0.225042 0.234470 0.120678 0.171971 0.202096 0.219150 0.226853 0.119290 0.168672 0.196025 0.210099 0.215769 0.117047 0.163144 0.186101 0.196397 0.200048 0.113126 0.153231 0.169775 0.176176 0.178167 0.105211 0.134170 0.143366 0.146685 0.147504 0.084488 0.096210 0.099946 0.101254 0.101355 