Variables="X","Y","Z","GAMMA"
ZONE T="WING" i=6,j=51,k=1, ZONETYPE=Ordered
DATAPACKING=BLOCK
VARLOCATION=([4]=CELLCENTERED)
0.000000 0.200000 0.400000 0.600000 0.800000 1.000000 0.011547 0.211547 0.411547 0.611547 0.811547 1.011547 0.023094 0.223094 0.423094 0.623094 0.823094 1.023094 0.034641 0.234641 0.434641 0.634641 0.834641 1.034641 0.046188 0.246188 0.446188 0.646188 0.846188 1.046188 0.057735 0.257735 0.457735 0.657735 0.857735 1.057735 0.069282 0.269282 0.469282 0.669282 0.869282 1.069282 0.080829 0.280829 0.480829 0.680829 0.880829 1.080829 0.092376 0.292376 0.492376 0.692376 0.892376 1.092376 0.103923 0.303923 0.503923 0.703923 0.903923 1.103923 0.115470 0.315470 0.515470 0.715470 0.915470 1.115470 0.127017 0.327017 0.527017 0.727017 0.927017 1.127017 0.138564 0.338564 0.538564 0.738564 0.938564 1.138564 0.150111 0.350111 0.550111 0.750111 0.950111 1.150111 0.161658 0.361658 0.561658 0.761658 0.961658 1.161658 0.173205 0.373205 0.573205 0.773205 0.973205 1.173205 0.184752 0.384752 0.584752 0.784752 0.984752 1.184752 0.196299 0.396299 0.596299 0.796299 0.996299 1.196299 0.207846 0.407846 0.607846 0.807846 1.007846 1.207846 0.219393 0.419393 0.619393 0.819393 1.019393 1.219393 0.230940 0.430940 0.630940 0.830940 1.030940 1.230940 0.242487 0.442487 0.642487 0.842487 1.042487 1.242487 0.254034 0.454034 0.654034 0.854034 1.054034 1.254034 0.265581 0.465581 0.665581 0.865581 1.065581 1.265581 0.277128 0.477128 0.677128 0.877128 1.077128 1.277128 0.288675 0.488675 0.688675 0.888675 1.088675 1.288675 0.300222 0.500222 0.700222 0.900222 1.100222 1.300222 0.311769 0.511769 0.711769 0.911769 1.111769 1.311769 0.323316 0.523316 0.723316 0.923316 1.123316 1.323316 0.334863 0.534863 0.734863 0.934863 1.134863 1.334863 0.346410 0.546410 0.746410 0.946410 1.146410 1.346410 0.357957 0.557957 0.757957 0.957957 1.157957 1.357957 0.369504 0.569504 0.769504 0.969504 1.169504 1.369504 0.381051 0.581051 0.781051 0.981051 1.181051 1.381051 0.392598 0.592598 0.792598 0.992598 1.192598 1.392598 0.404145 0.604145 0.804145 1.004145 1.204145 1.404145 0.415692 0.615692 0.815692 1.015692 1.215692 1.415692 0.427239 0.627239 0.827239 1.027239 1.227239 1.427239 0.438786 0.638786 0.838786 1.038786 1.238786 1.438786 0.450333 0.650333 0.850333 1.050333 1.250333 1.450333 0.461880 0.661880 0.861880 1.061880 1.261880 1.461880 0.473427 0.673427 0.873427 1.073427 1.273427 1.473427 0.484974 0.684974 0.884974 1.084974 1.284974 1.484974 0.496521 0.696521 0.896521 1.096521 1.296521 1.496521 0.508068 0.708068 0.908068 1.108068 1.308068 1.508068 0.519615 0.719615 0.919615 1.119615 1.319615 1.519615 0.531162 0.731162 0.931162 1.131162 1.331162 1.531162 0.542709 0.742709 0.942709 1.142709 1.342709 1.542709 0.554256 0.754256 0.954256 1.154256 1.354256 1.554256 0.565803 0.765803 0.965803 1.165803 1.365803 1.565803 0.577350 0.777350 0.977350 1.177350 1.377350 1.577350
0.000000 0.000000 0.000000 0.000000 0.000000 0.000000 0.020000 0.020000 0.020000 0.020000 0.020000 0.020000 0.040000 0.040000 0.040000 0.040000 0.040000 0.040000 0.060000 0.060000 0.060000 0.060000 0.060000 0.060000 0.080000 0.080000 0.080000 0.080000 0.080000 0.080000 0.100000 0.100000 0.100000 0.100000 0.100000 0.100000 0.120000 0.120000 0.120000 0.120000 0.120000 0.120000 0.140000 0.140000 0.140000 0.140000 0.140000 0.140000 0.160000 0.160000 0.160000 0.160000 0.160000 0.160000 0.180000 0.180000 0.180000 0.180000 0.180000 0.180000 0.200000 0.200000 0.200000 0.200000 0.200000 0.200000 0.220000 0.220000 0.220000 0.220000 0.220000 0.220000 0.240000 0.240000 0.240000 0.240000 0.240000 0.240000 0.260000 0.260000 0.260000 0.260000 0.260000 0.260000 0.280000 0.280000 0.280000 0.280000 0.280000 0.280000 0.300000 0.300000 0.300000 0.300000 0.300000 0.300000 0.320000 0.320000 0.320000 0.320000 0.320000 0.320000 0.340000 0.340000 0.340000 0.340000 0.340000 0.340000 0.360000 0.360000 0.360000 0.360000 0.360000 0.360000 0.380000 0.380000 0.380000 0.380000 0.380000 0.380000 0.400000 0.400000 0.400000 0.400000 0.400000 0.400000 0.420000 0.420000 0.420000 0.420000 0.420000 0.420000 0.440000 0.440000 0.440000 0.440000 0.440000 0.440000 0.460000 0.460000 0.460000 0.460000 0.460000 0.460000 0.480000 0.480000 0.480000 0.480000 0.480000 0.480000 0.500000 0.500000 0.500000 0.500000 0.500000 0.500000 0.520000 0.520000 0.520000 0.520000 0.520000 0.520000 0.540000 0.540000 0.540000 0.540000 0.540000 0.540000 0.560000 0.560000 0.560000 0.560000 0.560000 0.560000 0.580000 0.580000 0.580000 0.580000 0.580000 0.580000 0.600000 0.600000 0.600000 0.600000 0.600000 0.600000 0.620000 0.620000 0.620000 0.620000 0.620000 0.620000 0.640000 0.640000 0.640000 0.640000 0.640000 0.640000 0.660000 0.660000 0.660000 0.660000 0.660000 0.660000 0.680000 0.680000 0.680000 0.680000 0.680000 0.680000 0.700000 0.700000 0.700000 0.700000 0.700000 0.700000 0.720000 0.720000 0.720000 0.720000 0.720000 0.720000 0.740000 0.740000 0.740000 0.740000 0.740000 0.740000 0.760000 0.760000 0.760000 0.760000 0.760000 0.760000 0.780000 0.780000 0.780000 0.780000 0.780000 0.780000 0.800000 0.800000 0.800000 0.800000 0.800000 0.800000 0.820000 0.820000 0.820000 0.820000 0.820000 0.820000 0.840000 0.840000 0.840000 0.840000 0.840000 0.840000 0.860000 0.860000 0.860000 0.860000 0.860000 0.860000 0.880000 0.880000 0.880000 0.880000 0.880000 0.880000 0.900000 0.900000 0.900000 0.900000 0.900000 0.900000 0.920000 0.920000 0.920000 0.920000 0.920000 0.920000 0.940000 0.940000 0.940000 0.940000 0.940000 0.940000 0.960000 0.960000 0.960000 0.960000 0.960000 0.960000 0.980000 0.980000 0.980000 0.980000 0.980000 0.980000 1.000000 1.000000 1.000000 1.000000 1.000000 1.000000
0.000000 0.000000 0.000000 0.000000 0.000000 0.000000 0.000000 0.000000 0.000000 0.000000 0.000000 0.000000 0.000000 0.000000 0.000000 0.000000 0.000000 0.000000 0.000000 0.000000 0.000000 0.000000 0.000000 0.000000 0.000000 0.000000 0.000000 0.000000 0.000000 0.000000 0.000000 0.000000 0.000000 0.000000 0.000000 0.000000 0.000000 0.000000 0.000000 0.000000 0.000000 0.000000 0.000000 0.000000 0.000000 0.000000 0.000000 0.000000 0.000000 0.000000 0.000000 0.000000 0.000000 0.000000 0.000000 0.000000 0.000000 0.000000 0.000000 0.000000 0.000000 0.000000 0.000000 0.000000 0.000000 0.000000 0.000000 0.000000 0.000000 0.000000 0.000000 0.000000 0.000000 0.000000 0.000000 0.000000 0.000000 0.000000 0.000000 0.000000 0.000000 0.000000 0.000000 0.000000 0.000000 0.000000 0.000000 0.000000 0.000000 0.000000 0.000000 0.000000 0.000000 0.000000 0.000000 0.000000 0.000000 0.000000 0.000000 0.000000 0.000000 0.000000 0.000000 0.000000 0.000000 0.000000 0.000000 0.000000 0.000000 0.000000 0.000000 0.000000 0.000000 0.000000 0.000000 0.000000 0.000000 0.000000 0.000000 0.000000 0.000000 0.000000 0.000000 0.000000 0.000000 0.000000 0.000000 0.000000 0.000000 0.000000 0.000000 0.000000 0.000000 0.000000 0.000000 0.000000 0.000000 0.000000 0.000000 0.000000 0.000000 0.000000 0.000000 0.000000 0.000000 0.000000 0.000000 0.000000 0.000000 0.000000 0.000000 0.000000 0.000000 0.000000 0.000000 0.000000 0.000000 0.000000 0.000000 0.000000 0.000000 0.000000 0.000000 0.000000 0.000000 0.000000 0.000000 0.000000 0.000000 0.000000 0.000000 0.000000 0.000000 0.000000 0.000000 0.000000 0.000000 0.000000 0.000000 0.000000 0.000000 0.000000 0.000000 0.000000 0.000000 0.000000 0.000000 0.000000 0.000000 0.000000 0.000000 0.000000 0.000000 0.000000 0.000000 0.000000 0.000000 0.000000 0.000000 0.000000 0.000000 0.000000 0.000000 0.000000 0.000000 0.000000 0.000000 0.000000 0.000000 0.000000 0.000000 0.000000 0.000000 0.000000 0.000000 0.000000 0.000000 0.000000 0.000000 0.000000 0.000000 0.000000 0.000000 0.000000 0.000000 0.000000 0.000000 0.000000 0.000000 0.000000 0.000000 0.000000 0.000000 0.000000 0.000000 0.000000 0.000000 0.000000 0.000000 0.000000 0.000000 0.000000 0.000000 0.000000 0.000000 0.000000 0.000000 0.000000 0.000000 0.000000 0.000000 0.000000 0.000000 0.000000 0.000000 0.000000 0.000000 0.000000 0.000000 0.000000 0.000000 0.000000 0.000000 0.000000 0.000000 0.000000 0.000000 0.000000 0.000000 0.000000 0.000000 0.000000 0.000000 0.000000 0.000000 0.000000 0.000000 0.000000 0.000000 0.000000 0.000000 0.000000 0.000000 0.000000 0.000000 0.000000 0.000000 0.000000 0.000000 0.000000 0.000000 0.000000 0.000000 0.000000 0.000000 0.000000 0.000000 0.000000 0.000000 0.000000 0.000000 0.000000 0.000000 0.000000 0.000000 0.000000
0.109009 0.168409 0.208230 0.235084 0.251246 0.110557 0.169504 0.208982 0.235556 0.251451 0.112477 0.170923 0.209955 0.236149 0.251680 0.114461 0.172439 0.210989 0.236756 0.251883 0.116375 0.173941 0.212004 0.237325 0.252038 0.118162 0.175372 0.212956 0.237825 0.252131 0.119799 0.176703 0.213822 0.238240 0.252152 0.121284 0.177922 0.214589 0.238561 0.252095 0.122624 0.179023 0.215250 0.238781 0.251954 0.123827 0.180005 0.215802 0.238897 0.251723 0.124903 0.180869 0.216242 0.238906 0.251397 0.125859 0.181616 0.216568 0.238805 0.250973 0.126705 0.182249 0.216781 0.238592 0.250446 0.127446 0.182768 0.216877 0.238265 0.249811 0.128089 0.183176 0.216856 0.237820 0.249065 0.128639 0.183472 0.216715 0.237254 0.248203 0.129099 0.183657 0.216453 0.236564 0.247220 0.129473 0.183732 0.216068 0.235747 0.246112 0.129764 0.183694 0.215555 0.234798 0.244873 0.129971 0.183543 0.214912 0.233712 0.243499 0.130098 0.183276 0.214135 0.232486 0.241983 0.130144 0.182892 0.213218 0.231112 0.240320 0.130109 0.182386 0.212158 0.229586 0.238504 0.129991 0.181755 0.210946 0.227900 0.236527 0.129790 0.180993 0.209578 0.226048 0.234381 0.129503 0.180094 0.208045 0.224021 0.232060 0.129126 0.179052 0.206338 0.221810 0.229555 0.128657 0.177858 0.204449 0.219407 0.226854 0.128090 0.176503 0.202366 0.216800 0.223950 0.127419 0.174975 0.200077 0.213978 0.220829 0.126637 0.173263 0.197569 0.210928 0.217479 0.125735 0.171352 0.194828 0.207635 0.213886 0.124703 0.169224 0.191836 0.204083 0.210034 0.123528 0.166862 0.188574 0.200254 0.205905 0.122195 0.164242 0.185021 0.196127 0.201479 0.120685 0.161340 0.181152 0.191679 0.196733 0.118977 0.158125 0.176938 0.186882 0.191638 0.117043 0.154563 0.172347 0.181705 0.186164 0.114847 0.150612 0.167340 0.176108 0.180273 0.112349 0.146223 0.161871 0.170047 0.173919 0.109492 0.141338 0.155882 0.163466 0.167046 0.106209 0.135884 0.149305 0.156295 0.159585 0.102408 0.129769 0.142051 0.148445 0.151445 0.097970 0.122877 0.134001 0.139797 0.142508 0.092730 0.115047 0.124998 0.130190 0.132611 0.086458 0.106057 0.114812 0.119391 0.121519 0.078813 0.095566 0.103092 0.107039 0.108868 0.069246 0.083006 0.089241 0.092524 0.094039 0.056734 0.067259 0.072083 0.074633 0.075805 0.038688 0.045393 0.048507 0.050159 0.050916 