Variables="X","Y","Z","GAMMA"
ZONE T="WING" i=6,j=51,k=1, ZONETYPE=Ordered
DATAPACKING=BLOCK
VARLOCATION=([4]=CELLCENTERED)
0.000000 0.200000 0.400000 0.600000 0.800000 1.000000 0.000000 0.200000 0.400000 0.600000 0.800000 1.000000 0.000000 0.200000 0.400000 0.600000 0.800000 1.000000 0.000000 0.200000 0.400000 0.600000 0.800000 1.000000 0.000000 0.200000 0.400000 0.600000 0.800000 1.000000 0.000000 0.200000 0.400000 0.600000 0.800000 1.000000 0.000000 0.200000 0.400000 0.600000 0.800000 1.000000 0.000000 0.200000 0.400000 0.600000 0.800000 1.000000 0.000000 0.200000 0.400000 0.600000 0.800000 1.000000 0.000000 0.200000 0.400000 0.600000 0.800000 1.000000 0.000000 0.200000 0.400000 0.600000 0.800000 1.000000 0.000000 0.200000 0.400000 0.600000 0.800000 1.000000 0.000000 0.200000 0.400000 0.600000 0.800000 1.000000 0.000000 0.200000 0.400000 0.600000 0.800000 1.000000 0.000000 0.200000 0.400000 0.600000 0.800000 1.000000 0.000000 0.200000 0.400000 0.600000 0.800000 1.000000 0.000000 0.200000 0.400000 0.600000 0.800000 1.000000 0.000000 0.200000 0.400000 0.600000 0.800000 1.000000 0.000000 0.200000 0.400000 0.600000 0.800000 1.000000 0.000000 0.200000 0.400000 0.600000 0.800000 1.000000 0.000000 0.200000 0.400000 0.600000 0.800000 1.000000 0.000000 0.200000 0.400000 0.600000 0.800000 1.000000 0.000000 0.200000 0.400000 0.600000 0.800000 1.000000 0.000000 0.200000 0.400000 0.600000 0.800000 1.000000 0.000000 0.200000 0.400000 0.600000 0.800000 1.000000 0.000000 0.200000 0.400000 0.600000 0.800000 1.000000 0.000000 0.200000 0.400000 0.600000 0.800000 1.000000 0.000000 0.200000 0.400000 0.600000 0.800000 1.000000 0.000000 0.200000 0.400000 0.600000 0.800000 1.000000 0.000000 0.200000 0.400000 0.600000 0.800000 1.000000 0.000000 0.200000 0.400000 0.600000 0.800000 1.000000 0.000000 0.200000 0.400000 0.600000 0.800000 1.000000 0.000000 0.200000 0.400000 0.600000 0.800000 1.000000 0.000000 0.200000 0.400000 0.600000 0.800000 1.000000 0.000000 0.200000 0.400000 0.600000 0.800000 1.000000 0.000000 0.200000 0.400000 0.600000 0.800000 1.000000 0.000000 0.200000 0.400000 0.600000 0.800000 1.000000 0.000000 0.200000 0.400000 0.600000 0.800000 1.000000 0.000000 0.200000 0.400000 0.600000 0.800000 1.000000 0.000000 0.200000 0.400000 0.600000 0.800000 1.000000 0.000000 0.200000 0.400000 0.600000 0.800000 1.000000 0.000000 0.200000 0.400000 0.600000 0.800000 1.000000 0.000000 0.200000 0.400000 0.600000 0.800000 1.000000 0.000000 0.200000 0.400000 0.600000 0.800000 1.000000 0.000000 0.200000 0.400000 0.600000 0.800000 1.000000 0.000000 0.200000 0.400000 0.600000 0.800000 1.000000 0.000000 0.200000 0.400000 0.600000 0.800000 1.000000 0.000000 0.200000 0.400000 0.600000 0.800000 1.000000 0.000000 0.200000 0.400000 0.600000 0.800000 1.000000 0.000000 0.200000 0.400000 0.600000 0.800000 1.000000 0.000000 0.200000 0.400000 0.600000 0.800000 1.000000
0.000000 0.000000 0.000000 0.000000 0.000000 0.000000 0.072000 0.072000 0.072000 0.072000 0.072000 0.072000 0.144000 0.144000 0.144000 0.144000 0.144000 0.144000 0.216000 0.216000 0.216000 0.216000 0.216000 0.216000 0.288000 0.288000 0.288000 0.288000 0.288000 0.288000 0.360000 0.360000 0.360000 0.360000 0.360000 0.360000 0.432000 0.432000 0.432000 0.432000 0.432000 0.432000 0.504000 0.504000 0.504000 0.504000 0.504000 0.504000 0.576000 0.576000 0.576000 0.576000 0.576000 0.576000 0.648000 0.648000 0.648000 0.648000 0.648000 0.648000 0.720000 0.720000 0.720000 0.720000 0.720000 0.720000 0.792000 0.792000 0.792000 0.792000 0.792000 0.792000 0.864000 0.864000 0.864000 0.864000 0.864000 0.864000 0.936000 0.936000 0.936000 0.936000 0.936000 0.936000 1.008000 1.008000 1.008000 1.008000 1.008000 1.008000 1.080000 1.080000 1.080000 1.080000 1.080000 1.080000 1.152000 1.152000 1.152000 1.152000 1.152000 1.152000 1.224000 1.224000 1.224000 1.224000 1.224000 1.224000 1.296000 1.296000 1.296000 1.296000 1.296000 1.296000 1.368000 1.368000 1.368000 1.368000 1.368000 1.368000 1.440000 1.440000 1.440000 1.440000 1.440000 1.440000 1.512000 1.512000 1.512000 1.512000 1.512000 1.512000 1.584000 1.584000 1.584000 1.584000 1.584000 1.584000 1.656000 1.656000 1.656000 1.656000 1.656000 1.656000 1.728000 1.728000 1.728000 1.728000 1.728000 1.728000 1.800000 1.800000 1.800000 1.800000 1.800000 1.800000 1.872000 1.872000 1.872000 1.872000 1.872000 1.872000 1.944000 1.944000 1.944000 1.944000 1.944000 1.944000 2.016000 2.016000 2.016000 2.016000 2.016000 2.016000 2.088000 2.088000 2.088000 2.088000 2.088000 2.088000 2.160000 2.160000 2.160000 2.160000 2.160000 2.160000 2.232000 2.232000 2.232000 2.232000 2.232000 2.232000 2.304000 2.304000 2.304000 2.304000 2.304000 2.304000 2.376000 2.376000 2.376000 2.376000 2.376000 2.376000 2.448000 2.448000 2.448000 2.448000 2.448000 2.448000 2.520000 2.520000 2.520000 2.520000 2.520000 2.520000 2.592000 2.592000 2.592000 2.592000 2.592000 2.592000 2.664000 2.664000 2.664000 2.664000 2.664000 2.664000 2.736000 2.736000 2.736000 2.736000 2.736000 2.736000 2.808000 2.808000 2.808000 2.808000 2.808000 2.808000 2.880000 2.880000 2.880000 2.880000 2.880000 2.880000 2.952000 2.952000 2.952000 2.952000 2.952000 2.952000 3.024000 3.024000 3.024000 3.024000 3.024000 3.024000 3.096000 3.096000 3.096000 3.096000 3.096000 3.096000 3.168000 3.168000 3.168000 3.168000 3.168000 3.168000 3.240000 3.240000 3.240000 3.240000 3.240000 3.240000 3.312000 3.312000 3.312000 3.312000 3.312000 3.312000 3.384000 3.384000 3.384000 3.384000 3.384000 3.384000 3.456000 3.456000 3.456000 3.456000 3.456000 3.456000 3.528000 3.528000 3.528000 3.528000 3.528000 3.528000 3.600000 3.600000 3.600000 3.600000 3.600000 3.600000
0.000000 0.000000 0.000000 0.000000 0.000000 0.000000 0.000000 0.000000 0.000000 0.000000 0.000000 0.000000 0.000000 0.000000 0.000000 0.000000 0.000000 0.000000 0.000000 0.000000 0.000000 0.000000 0.000000 0.000000 0.000000 0.000000 0.000000 0.000000 0.000000 0.000000 0.000000 0.000000 0.000000 0.000000 0.000000 0.000000 0.000000 0.000000 0.000000 0.000000 0.000000 0.000000 0.000000 0.000000 0.000000 0.000000 0.000000 0.000000 0.000000 0.000000 0.000000 0.000000 0.000000 0.000000 0.000000 0.000000 0.000000 0.000000 0.000000 0.000000 0.000000 0.000000 0.000000 0.000000 0.000000 0.000000 0.000000 0.000000 0.000000 0.000000 0.000000 0.000000 0.000000 0.000000 0.000000 0.000000 0.000000 0.000000 0.000000 0.000000 0.000000 0.000000 0.000000 0.000000 0.000000 0.000000 0.000000 0.000000 0.000000 0.000000 0.000000 0.000000 0.000000 0.000000 0.000000 0.000000 0.000000 0.000000 0.000000 0.000000 0.000000 0.000000 0.000000 0.000000 0.000000 0.000000 0.000000 0.000000 0.000000 0.000000 0.000000 0.000000 0.000000 0.000000 0.000000 0.000000 0.000000 0.000000 0.000000 0.000000 0.000000 0.000000 0.000000 0.000000 0.000000 0.000000 0.000000 0.000000 0.000000 0.000000 0.000000 0.000000 0.000000 0.000000 0.000000 0.000000 0.000000 0.000000 0.000000 0.000000 0.000000 0.000000 0.000000 0.000000 0.000000 0.000000 0.000000 0.000000 0.000000 0.000000 0.000000 0.000000 0.000000 0.000000 0.000000 0.000000 0.000000 0.000000 0.000000 0.000000 0.000000 0.000000 0.000000 0.000000 0.000000 0.000000 0.000000 0.000000 0.000000 0.000000 0.000000 0.000000 0.000000 0.000000 0.000000 0.000000 0.000000 0.000000 0.000000 0.000000 0.000000 0.000000 0.000000 0.000000 0.000000 0.000000 0.000000 0.000000 0.000000 0.000000 0.000000 0.000000 0.000000 0.000000 0.000000 0.000000 0.000000 0.000000 0.000000 0.000000 0.000000 0.000000 0.000000 0.000000 0.000000 0.000000 0.000000 0.000000 0.000000 0.000000 0.000000 0.000000 0.000000 0.000000 0.000000 0.000000 0.000000 0.000000 0.000000 0.000000 0.000000 0.000000 0.000000 0.000000 0.000000 0.000000 0.000000 0.000000 0.000000 0.000000 0.000000 0.000000 0.000000 0.000000 0.000000 0.000000 0.000000 0.000000 0.000000 0.000000 0.000000 0.000000 0.000000 0.000000 0.000000 0.000000 0.000000 0.000000 0.000000 0.000000 0.000000 0.000000 0.000000 0.000000 0.000000 0.000000 0.000000 0.000000 0.000000 0.000000 0.000000 0.000000 0.000000 0.000000 0.000000 0.000000 0.000000 0.000000 0.000000 0.000000 0.000000 0.000000 0.000000 0.000000 0.000000 0.000000 0.000000 0.000000 0.000000 0.000000 0.000000 0.000000 0.000000 0.000000 0.000000 0.000000 0.000000 0.000000 0.000000 0.000000 0.000000 0.000000 0.000000 0.000000 0.000000 0.000000 0.000000 0.000000 0.000000 0.000000 0.000000 0.000000 0.000000 0.000000 0.000000 0.000000
0.135531 0.195232 0.233289 0.258464 0.273046 0.135511 0.195202 0.233252 0.258421 0.273000 0.135471 0.195142 0.233178 0.258337 0.272909 0.135411 0.195052 0.233066 0.258209 0.272772 0.135331 0.194931 0.232916 0.258039 0.272588 0.135231 0.194780 0.232728 0.257824 0.272357 0.135109 0.194597 0.232501 0.257565 0.272078 0.134966 0.194381 0.232234 0.257260 0.271749 0.134802 0.194133 0.231925 0.256908 0.271370 0.134615 0.193851 0.231575 0.256508 0.270939 0.134404 0.193533 0.231180 0.256058 0.270455 0.134170 0.193179 0.230741 0.255556 0.269914 0.133911 0.192788 0.230255 0.255000 0.269316 0.133627 0.192358 0.229719 0.254389 0.268657 0.133315 0.191886 0.229133 0.253719 0.267935 0.132975 0.191372 0.228493 0.252987 0.267147 0.132605 0.190812 0.227796 0.252191 0.266289 0.132204 0.190205 0.227040 0.251326 0.265356 0.131771 0.189547 0.226220 0.250389 0.264346 0.131302 0.188836 0.225334 0.249374 0.263252 0.130797 0.188069 0.224376 0.248278 0.262069 0.130252 0.187240 0.223342 0.247094 0.260792 0.129665 0.186347 0.222227 0.245816 0.259414 0.129033 0.185385 0.221024 0.244438 0.257926 0.128353 0.184348 0.219726 0.242950 0.256320 0.127620 0.183230 0.218327 0.241345 0.254588 0.126832 0.182025 0.216817 0.239613 0.252717 0.125982 0.180725 0.215188 0.237742 0.250697 0.125066 0.179322 0.213427 0.235719 0.248513 0.124078 0.177806 0.211523 0.233531 0.246150 0.123011 0.176166 0.209461 0.231161 0.243589 0.121857 0.174389 0.207225 0.228590 0.240812 0.120606 0.172461 0.204797 0.225797 0.237795 0.119249 0.170365 0.202154 0.222756 0.234511 0.117773 0.168080 0.199271 0.219439 0.230929 0.116163 0.165583 0.196119 0.215812 0.227013 0.114403 0.162847 0.192661 0.211834 0.222721 0.112470 0.159836 0.188856 0.207458 0.218003 0.110340 0.156511 0.184651 0.202627 0.212797 0.107981 0.152819 0.179984 0.197270 0.207033 0.105353 0.148697 0.174775 0.191302 0.200619 0.102403 0.144062 0.168927 0.184615 0.193446 0.099062 0.138805 0.162309 0.177071 0.185372 0.095235 0.132779 0.154752 0.168491 0.176213 0.090784 0.125780 0.146023 0.158629 0.165718 0.085502 0.117508 0.135789 0.147138 0.153534 0.079051 0.107500 0.123546 0.133495 0.139125 0.070827 0.094977 0.108458 0.116828 0.121599 0.059592 0.078434 0.088910 0.095449 0.099219 0.042067 0.054040 0.060759 0.064995 0.067477 