Variables="X","Y","Z","GAMMA"
ZONE T="WING" i=6,j=51,k=1, ZONETYPE=Ordered
DATAPACKING=BLOCK
VARLOCATION=([4]=CELLCENTERED)
-0.000000 0.200000 0.400000 0.600000 0.800000 1.000000 0.219941 0.416171 0.612401 0.808631 1.004861 1.201092 0.439664 0.632127 0.824591 1.017054 1.209517 1.401980 0.658954 0.847656 1.036359 1.225062 1.413765 1.602468 0.877593 1.062546 1.247499 1.432452 1.617404 1.802357 1.095366 1.276583 1.457800 1.639017 1.820234 2.001451 1.312058 1.489557 1.667056 1.844555 2.022054 2.199553 1.527455 1.701258 1.875061 2.048863 2.222666 2.396469 1.741345 1.911477 2.081608 2.251740 2.421872 2.592003 1.953517 2.120006 2.286496 2.452985 2.619475 2.785964 2.163760 2.326640 2.489520 2.652400 2.815280 2.978161 2.371868 2.531175 2.690482 2.849789 3.009096 3.168403 2.577636 2.733409 2.889183 3.044957 3.200730 3.356504 2.780859 2.933143 3.085427 3.237711 3.389994 3.542278 2.981339 3.130179 3.279020 3.427861 3.576702 3.725542 3.178876 3.324324 3.469772 3.615220 3.760668 3.906116 3.373276 3.515385 3.657494 3.799603 3.941712 4.083821 3.564346 3.703174 3.842001 3.980828 4.119656 4.258483 3.751900 3.887505 4.023111 4.158717 4.294323 4.429929 3.935750 4.068198 4.200646 4.333094 4.465542 4.597990 4.115717 4.245073 4.374430 4.503787 4.633144 4.762501 4.291621 4.417957 4.544292 4.670628 4.796963 4.923298 4.463291 4.586678 4.710065 4.833451 4.956838 5.080225 4.630556 4.751070 4.871584 4.992098 5.112612 5.233126 4.793250 4.910970 5.028690 5.146410 5.264130 5.381849 4.951215 5.066222 5.181229 5.296236 5.411243 5.526250 5.104293 5.216671 5.329049 5.441428 5.553806 5.666184 5.252334 5.362170 5.472006 5.581842 5.691678 5.801514 5.395192 5.502575 5.609958 5.717340 5.824723 5.932106 5.532725 5.637746 5.742768 5.847789 5.952811 6.057832 5.664798 5.767552 5.870306 5.973060 6.075813 6.178567 5.791281 5.891863 5.992445 6.093028 6.193610 6.294193 5.912048 6.010557 6.109066 6.207576 6.306085 6.404594 6.026981 6.123517 6.220053 6.316590 6.413126 6.509663 6.135965 6.230631 6.325297 6.419963 6.514629 6.609294 6.238895 6.331794 6.424693 6.517592 6.610492 6.703391 6.335667 6.426906 6.518144 6.609382 6.700621 6.791859 6.426187 6.515872 6.605557 6.695242 6.784927 6.874612 6.510365 6.598606 6.686846 6.775087 6.863327 6.951568 6.588118 6.675025 6.761931 6.848838 6.935744 7.022650 6.659369 6.745053 6.830737 6.916421 7.002105 7.087789 6.724049 6.808623 6.893197 6.977772 7.062346 7.146920 6.782092 6.865671 6.949249 7.032828 7.116407 7.199985 6.833443 6.916140 6.998838 7.081536 7.164233 7.246931 6.878049 6.959982 7.041914 7.123847 7.205779 7.287712 6.915868 6.997152 7.078436 7.159720 7.241003 7.322287 6.946862 7.027614 7.108366 7.189118 7.269871 7.350623 6.971000 7.051338 7.131676 7.212014 7.292352 7.372691 6.988258 7.068300 7.148343 7.228385 7.308427 7.388469 6.998620 7.078485 7.158349 7.238213 7.318078 7.397942 7.002075 7.081881 7.161686 7.241491 7.321296 7.401101
-0.000000 -0.000000 -0.000000 -0.000000 -0.000000 -0.000000 0.314108 0.314108 0.314108 0.314108 0.314108 0.314108 0.627905 0.627905 0.627905 0.627905 0.627905 0.627905 0.941083 0.941083 0.941083 0.941083 0.941083 0.941083 1.253332 1.253332 1.253332 1.253332 1.253332 1.253332 1.564345 1.564345 1.564345 1.564345 1.564345 1.564345 1.873813 1.873813 1.873813 1.873813 1.873813 1.873813 2.181432 2.181432 2.181432 2.181432 2.181432 2.181432 2.486899 2.486899 2.486899 2.486899 2.486899 2.486899 2.789911 2.789911 2.789911 2.789911 2.789911 2.789911 3.090170 3.090170 3.090170 3.090170 3.090170 3.090170 3.387379 3.387379 3.387379 3.387379 3.387379 3.387379 3.681246 3.681246 3.681246 3.681246 3.681246 3.681246 3.971479 3.971479 3.971479 3.971479 3.971479 3.971479 4.257793 4.257793 4.257793 4.257793 4.257793 4.257793 4.539905 4.539905 4.539905 4.539905 4.539905 4.539905 4.817537 4.817537 4.817537 4.817537 4.817537 4.817537 5.090414 5.090414 5.090414 5.090414 5.090414 5.090414 5.358268 5.358268 5.358268 5.358268 5.358268 5.358268 5.620834 5.620834 5.620834 5.620834 5.620834 5.620834 5.877853 5.877853 5.877853 5.877853 5.877853 5.877853 6.129071 6.129071 6.129071 6.129071 6.129071 6.129071 6.374240 6.374240 6.374240 6.374240 6.374240 6.374240 6.613119 6.613119 6.613119 6.613119 6.613119 6.613119 6.845471 6.845471 6.845471 6.845471 6.845471 6.845471 7.071068 7.071068 7.071068 7.071068 7.071068 7.071068 7.289686 7.289686 7.289686 7.289686 7.289686 7.289686 7.501111 7.501111 7.501111 7.501111 7.501111 7.501111 7.705132 7.705132 7.705132 7.705132 7.705132 7.705132 7.901550 7.901550 7.901550 7.901550 7.901550 7.901550 8.090170 8.090170 8.090170 8.090170 8.090170 8.090170 8.270806 8.270806 8.270806 8.270806 8.270806 8.270806 8.443279 8.443279 8.443279 8.443279 8.443279 8.443279 8.607420 8.607420 8.607420 8.607420 8.607420 8.607420 8.763067 8.763067 8.763067 8.763067 8.763067 8.763067 8.910065 8.910065 8.910065 8.910065 8.910065 8.910065 9.048271 9.048271 9.048271 9.048271 9.048271 9.048271 9.177546 9.177546 9.177546 9.177546 9.177546 9.177546 9.297765 9.297765 9.297765 9.297765 9.297765 9.297765 9.408808 9.408808 9.408808 9.408808 9.408808 9.408808 9.510565 9.510565 9.510565 9.510565 9.510565 9.510565 9.602937 9.602937 9.602937 9.602937 9.602937 9.602937 9.685832 9.685832 9.685832 9.685832 9.685832 9.685832 9.759168 9.759168 9.759168 9.759168 9.759168 9.759168 9.822873 9.822873 9.822873 9.822873 9.822873 9.822873 9.876883 9.876883 9.876883 9.876883 9.876883 9.876883 9.921147 9.921147 9.921147 9.921147 9.921147 9.921147 9.955620 9.955620 9.955620 9.955620 9.955620 9.955620 9.980267 9.980267 9.980267 9.980267 9.980267 9.980267 9.995066 9.995066 9.995066 9.995066 9.995066 9.995066 10.000000 10.000000 10.000000 10.000000 10.000000 10.000000
0.000000 -0.000000 -0.000000 -0.000000 -0.000000 -0.000000 0.000000 0.000430 0.000861 0.001291 0.001721 0.002152 0.000000 0.000844 0.001687 0.002531 0.003375 0.004218 0.000000 0.001240 0.002480 0.003719 0.004959 0.006199 0.000000 0.001618 0.003237 0.004855 0.006473 0.008092 0.000000 0.001979 0.003958 0.005938 0.007917 0.009896 0.000000 0.002322 0.004644 0.006966 0.009288 0.011611 0.000000 0.002647 0.005294 0.007941 0.010588 0.013235 0.000000 0.002954 0.005908 0.008862 0.011816 0.014770 0.000000 0.003243 0.006486 0.009730 0.012973 0.016216 0.000000 0.003514 0.007029 0.010543 0.014058 0.017572 0.000000 0.003768 0.007536 0.011304 0.015072 0.018840 0.000000 0.004004 0.008009 0.012013 0.016017 0.020021 0.000000 0.004223 0.008447 0.012670 0.016893 0.021117 0.000000 0.004426 0.008851 0.013277 0.017702 0.022128 0.000000 0.004611 0.009223 0.013834 0.018446 0.023057 0.000000 0.004781 0.009563 0.014344 0.019125 0.023907 0.000000 0.004936 0.009871 0.014807 0.019743 0.024678 0.000000 0.005075 0.010150 0.015225 0.020300 0.025375 0.000000 0.005200 0.010400 0.015600 0.020800 0.026000 0.000000 0.005311 0.010622 0.015933 0.021245 0.026556 0.000000 0.005409 0.010818 0.016227 0.021636 0.027045 0.000000 0.005494 0.010989 0.016483 0.021978 0.027472 0.000000 0.005568 0.011136 0.016704 0.022272 0.027839 0.000000 0.005630 0.011260 0.016890 0.022521 0.028151 0.000000 0.005682 0.011364 0.017046 0.022728 0.028410 0.000000 0.005724 0.011448 0.017172 0.022896 0.028620 0.000000 0.005757 0.011514 0.017271 0.023028 0.028786 0.000000 0.005782 0.011564 0.017346 0.023128 0.028910 0.000000 0.005799 0.011598 0.017398 0.023197 0.028996 0.000000 0.005810 0.011619 0.017429 0.023239 0.029049 0.000000 0.005814 0.011628 0.017443 0.023257 0.029071 0.000000 0.005813 0.011627 0.017440 0.023254 0.029067 0.000000 0.005808 0.011616 0.017424 0.023232 0.029040 0.000000 0.005799 0.011597 0.017396 0.023195 0.028993 0.000000 0.005786 0.011572 0.017358 0.023145 0.028931 0.000000 0.005771 0.011542 0.017313 0.023084 0.028856 0.000000 0.005754 0.011508 0.017262 0.023016 0.028771 0.000000 0.005736 0.011472 0.017207 0.022943 0.028679 0.000000 0.005717 0.011434 0.017150 0.022867 0.028584 0.000000 0.005697 0.011395 0.017092 0.022790 0.028487 0.000000 0.005678 0.011357 0.017035 0.022714 0.028392 0.000000 0.005660 0.011320 0.016981 0.022641 0.028301 0.000000 0.005643 0.011286 0.016929 0.022572 0.028215 0.000000 0.005627 0.011255 0.016882 0.022510 0.028137 0.000000 0.005614 0.011227 0.016841 0.022455 0.028069 0.000000 0.005602 0.011204 0.016806 0.022408 0.028010 0.000000 0.005593 0.011186 0.016778 0.022371 0.027964 0.000000 0.005586 0.011172 0.016758 0.022344 0.027930 0.000000 0.005582 0.011164 0.016746 0.022328 0.027909 0.000000 0.005581 0.011161 0.016742 0.022322 0.027903
0.148232 0.221589 0.273449 0.310793 0.333926 0.163177 0.238156 0.288123 0.322436 0.342866 0.168578 0.244486 0.293989 0.327411 0.347112 0.170032 0.246059 0.295251 0.328248 0.347606 0.169475 0.245046 0.293778 0.326368 0.345437 0.167726 0.242425 0.290515 0.322623 0.341380 0.165197 0.238726 0.286019 0.317563 0.335971 0.162132 0.234276 0.280650 0.311562 0.329589 0.158692 0.229293 0.274659 0.304885 0.322504 0.154988 0.223936 0.268228 0.297730 0.314920 0.151104 0.218321 0.261493 0.290243 0.306991 0.147101 0.212536 0.254559 0.282538 0.298835 0.143028 0.206651 0.247507 0.274706 0.290545 0.138923 0.200721 0.240402 0.266817 0.282198 0.134817 0.194790 0.233297 0.258928 0.273852 0.130735 0.188893 0.226234 0.251087 0.265557 0.126697 0.183060 0.219247 0.243331 0.257353 0.122719 0.177314 0.212365 0.235692 0.249273 0.118816 0.171675 0.205611 0.228196 0.241343 0.114998 0.166159 0.199004 0.220862 0.233587 0.111275 0.160780 0.192561 0.213710 0.226022 0.107654 0.155547 0.186293 0.206753 0.218663 0.104140 0.150470 0.180211 0.200002 0.211522 0.100740 0.145555 0.174323 0.193466 0.204608 0.097455 0.140807 0.168635 0.187151 0.197928 0.094289 0.136231 0.163151 0.181062 0.191486 0.091244 0.131827 0.157873 0.175202 0.185285 0.088319 0.127596 0.152803 0.169570 0.179326 0.085514 0.123539 0.147938 0.164165 0.173606 0.082829 0.119653 0.143277 0.158985 0.168122 0.080261 0.115934 0.138814 0.154024 0.162867 0.077807 0.112378 0.134542 0.149271 0.157832 0.075461 0.108975 0.130452 0.144716 0.153001 0.073218 0.105716 0.126528 0.140340 0.148356 0.071069 0.102587 0.122752 0.136120 0.143869 0.069002 0.099567 0.119096 0.132022 0.139501 0.067002 0.096631 0.115524 0.127999 0.135198 0.065049 0.093743 0.111985 0.123986 0.130882 0.063115 0.090855 0.108408 0.119890 0.126444 0.061166 0.087901 0.104695 0.115581 0.121730 0.059156 0.084791 0.100709 0.110879 0.116528 0.057023 0.081403 0.096262 0.105540 0.110563 0.054688 0.077569 0.091100 0.099258 0.103522 0.052040 0.073049 0.084895 0.091704 0.095118 0.048915 0.067501 0.077278 0.082613 0.085189 0.045044 0.060487 0.067972 0.071906 0.073758 0.039965 0.051629 0.056959 0.059729 0.061013 0.033030 0.040923 0.044516 0.046394 0.047255 0.023960 0.028867 0.031150 0.032353 0.032901 0.014119 0.016851 0.018136 0.018814 0.019123 