Variables="X","Y","Z","GAMMA"
ZONE T="WING" i=6,j=51,k=1, ZONETYPE=Ordered
DATAPACKING=BLOCK
VARLOCATION=([4]=CELLCENTERED)
0.000000 0.200000 0.400000 0.600000 0.800000 1.000000 173205080.756888 173205080.956888 173205081.156888 173205081.356888 173205081.556888 173205081.756888 346410161.513775 346410161.713775 346410161.913775 346410162.113775 346410162.313775 346410162.513775 519615242.270663 519615242.470663 519615242.670663 519615242.870663 519615243.070663 519615243.270663 692820323.027551 692820323.227551 692820323.427551 692820323.627551 692820323.827551 692820324.027551 866025403.784438 866025403.984438 866025404.184438 866025404.384439 866025404.584439 866025404.784439 1039230484.541326 1039230484.741326 1039230484.941326 1039230485.141326 1039230485.341326 1039230485.541326 1212435565.298214 1212435565.498214 1212435565.698214 1212435565.898214 1212435566.098214 1212435566.298214 1385640646.055101 1385640646.255101 1385640646.455101 1385640646.655102 1385640646.855102 1385640647.055102 1558845726.811989 1558845727.011989 1558845727.211989 1558845727.411989 1558845727.611989 1558845727.811989 1732050807.568877 1732050807.768877 1732050807.968877 1732050808.168877 1732050808.368877 1732050808.568877 1905255888.325764 1905255888.525764 1905255888.725765 1905255888.925765 1905255889.125765 1905255889.325765 2078460969.082652 2078460969.282652 2078460969.482652 2078460969.682652 2078460969.882652 2078460970.082652 2251666049.839540 2251666050.039540 2251666050.239540 2251666050.439539 2251666050.639539 2251666050.839539 2424871130.596427 2424871130.796427 2424871130.996427 2424871131.196427 2424871131.396427 2424871131.596426 2598076211.353315 2598076211.553315 2598076211.753315 2598076211.953315 2598076212.153315 2598076212.353314 2771281292.110203 2771281292.310203 2771281292.510202 2771281292.710202 2771281292.910202 2771281293.110202 2944486372.867091 2944486373.067091 2944486373.267090 2944486373.467090 2944486373.667090 2944486373.867090 3117691453.623978 3117691453.823978 3117691454.023978 3117691454.223978 3117691454.423977 3117691454.623977 3290896534.380866 3290896534.580866 3290896534.780866 3290896534.980865 3290896535.180865 3290896535.380865 3464101615.137753 3464101615.337753 3464101615.537753 3464101615.737753 3464101615.937753 3464101616.137753 3637306695.894641 3637306696.094641 3637306696.294641 3637306696.494641 3637306696.694641 3637306696.894640 3810511776.651529 3810511776.851529 3810511777.051528 3810511777.251528 3810511777.451528 3810511777.651528 3983716857.408417 3983716857.608417 3983716857.808416 3983716858.008416 3983716858.208416 3983716858.408416 4156921938.165304 4156921938.365304 4156921938.565304 4156921938.765304 4156921938.965303 4156921939.165303 4330127018.922192 4330127019.122191 4330127019.322191 4330127019.522191 4330127019.722191 4330127019.922191 4503332099.679080 4503332099.879080 4503332100.079080 4503332100.279079 4503332100.479079 4503332100.679079 4676537180.435967 4676537180.635967 4676537180.835967 4676537181.035967 4676537181.235967 4676537181.435966 4849742261.192855 4849742261.392855 4849742261.592854 4849742261.792854 4849742261.992854 4849742262.192854 5022947341.949742 5022947342.149742 5022947342.349742 5022947342.549742 5022947342.749742 5022947342.949741 5196152422.706631 5196152422.906631 5196152423.106630 5196152423.306630 5196152423.506630 5196152423.706630 5369357503.463518 5369357503.663518 5369357503.863518 5369357504.063518 5369357504.263517 5369357504.463517 5542562584.220406 5542562584.420405 5542562584.620405 5542562584.820405 5542562585.020405 5542562585.220405 5715767664.977293 5715767665.177293 5715767665.377293 5715767665.577292 5715767665.777292 5715767665.977292 5888972745.734181 5888972745.934181 5888972746.134181 5888972746.334181 5888972746.534181 5888972746.734180 6062177826.491069 6062177826.691069 6062177826.891068 6062177827.091068 6062177827.291068 6062177827.491068 6235382907.247956 6235382907.447956 6235382907.647956 6235382907.847956 6235382908.047956 6235382908.247955 6408587988.004844 6408587988.204844 6408587988.404843 6408587988.604843 6408587988.804843 6408587989.004843 6581793068.761732 6581793068.961732 6581793069.161732 6581793069.361732 6581793069.561731 6581793069.761731 6754998149.518620 6754998149.718619 6754998149.918619 6754998150.118619 6754998150.318619 6754998150.518619 6928203230.275507 6928203230.475507 6928203230.675507 6928203230.875506 6928203231.075506 6928203231.275506 7101408311.032394 7101408311.232394 7101408311.432394 7101408311.632394 7101408311.832394 7101408312.032393 7274613391.789283 7274613391.989283 7274613392.189282 7274613392.389282 7274613392.589282 7274613392.789282 7447818472.546170 7447818472.746170 7447818472.946170 7447818473.146170 7447818473.346169 7447818473.546169 7621023553.303058 7621023553.503057 7621023553.703057 7621023553.903057 7621023554.103057 7621023554.303057 7794228634.059945 7794228634.259945 7794228634.459945 7794228634.659945 7794228634.859944 7794228635.059944 7967433714.816833 7967433715.016833 7967433715.216833 7967433715.416833 7967433715.616833 7967433715.816833 8140638795.573721 8140638795.773721 8140638795.973721 8140638796.173720 8140638796.373720 8140638796.573720 8313843876.330608 8313843876.530608 8313843876.730608 8313843876.930608 8313843877.130608 8313843877.330607 8487048957.087496 8487048957.287496 8487048957.487495 8487048957.687495 8487048957.887495 8487048958.087495 8660254037.844383 8660254038.044384 8660254038.244385 8660254038.444386 8660254038.644386 8660254038.844387
0.000000 0.000000 0.000000 0.000000 0.000000 0.000000 100000000.000000 100000000.000000 100000000.000000 100000000.000000 100000000.000000 100000000.000000 200000000.000000 200000000.000000 200000000.000000 200000000.000000 200000000.000000 200000000.000000 300000000.000000 300000000.000000 300000000.000000 300000000.000000 300000000.000000 300000000.000000 400000000.000000 400000000.000000 400000000.000000 400000000.000000 400000000.000000 400000000.000000 500000000.000000 500000000.000000 500000000.000000 500000000.000000 500000000.000000 500000000.000000 600000000.000000 600000000.000000 600000000.000000 600000000.000000 600000000.000000 600000000.000000 700000000.000000 700000000.000000 700000000.000000 700000000.000000 700000000.000000 700000000.000000 800000000.000000 800000000.000000 800000000.000000 800000000.000000 800000000.000000 800000000.000000 900000000.000000 900000000.000000 900000000.000000 900000000.000000 900000000.000000 900000000.000000 1000000000.000000 1000000000.000000 1000000000.000000 1000000000.000000 1000000000.000000 1000000000.000000 1100000000.000000 1100000000.000000 1100000000.000000 1100000000.000000 1100000000.000000 1100000000.000000 1200000000.000000 1200000000.000000 1200000000.000000 1200000000.000000 1200000000.000000 1200000000.000000 1300000000.000000 1300000000.000000 1300000000.000000 1300000000.000000 1300000000.000000 1300000000.000000 1400000000.000000 1400000000.000000 1400000000.000000 1400000000.000000 1400000000.000000 1400000000.000000 1500000000.000000 1500000000.000000 1500000000.000000 1500000000.000000 1500000000.000000 1500000000.000000 1600000000.000000 1600000000.000000 1600000000.000000 1600000000.000000 1600000000.000000 1600000000.000000 1700000000.000000 1700000000.000000 1700000000.000000 1700000000.000000 1700000000.000000 1700000000.000000 1800000000.000000 1800000000.000000 1800000000.000000 1800000000.000000 1800000000.000000 1800000000.000000 1900000000.000000 1900000000.000000 1900000000.000000 1900000000.000000 1900000000.000000 1900000000.000000 2000000000.000000 2000000000.000000 2000000000.000000 2000000000.000000 2000000000.000000 2000000000.000000 2100000000.000000 2100000000.000000 2100000000.000000 2100000000.000000 2100000000.000000 2100000000.000000 2200000000.000000 2200000000.000000 2200000000.000000 2200000000.000000 2200000000.000000 2200000000.000000 2300000000.000000 2300000000.000000 2300000000.000000 2300000000.000000 2300000000.000000 2300000000.000000 2400000000.000000 2400000000.000000 2400000000.000000 2400000000.000000 2400000000.000000 2400000000.000000 2500000000.000000 2500000000.000000 2500000000.000000 2500000000.000000 2500000000.000000 2500000000.000000 2600000000.000000 2600000000.000000 2600000000.000000 2600000000.000000 2600000000.000000 2600000000.000000 2700000000.000000 2700000000.000000 2700000000.000000 2700000000.000000 2700000000.000000 2700000000.000000 2800000000.000000 2800000000.000000 2800000000.000000 2800000000.000000 2800000000.000000 2800000000.000000 2900000000.000000 2900000000.000000 2900000000.000000 2900000000.000000 2900000000.000000 2900000000.000000 3000000000.000000 3000000000.000000 3000000000.000000 3000000000.000000 3000000000.000000 3000000000.000000 3100000000.000000 3100000000.000000 3100000000.000000 3100000000.000000 3100000000.000000 3100000000.000000 3200000000.000000 3200000000.000000 3200000000.000000 3200000000.000000 3200000000.000000 3200000000.000000 3300000000.000000 3300000000.000000 3300000000.000000 3300000000.000000 3300000000.000000 3300000000.000000 3400000000.000000 3400000000.000000 3400000000.000000 3400000000.000000 3400000000.000000 3400000000.000000 3500000000.000000 3500000000.000000 3500000000.000000 3500000000.000000 3500000000.000000 3500000000.000000 3600000000.000000 3600000000.000000 3600000000.000000 3600000000.000000 3600000000.000000 3600000000.000000 3700000000.000000 3700000000.000000 3700000000.000000 3700000000.000000 3700000000.000000 3700000000.000000 3800000000.000000 3800000000.000000 3800000000.000000 3800000000.000000 3800000000.000000 3800000000.000000 3900000000.000000 3900000000.000000 3900000000.000000 3900000000.000000 3900000000.000000 3900000000.000000 4000000000.000000 4000000000.000000 4000000000.000000 4000000000.000000 4000000000.000000 4000000000.000000 4100000000.000000 4100000000.000000 4100000000.000000 4100000000.000000 4100000000.000000 4100000000.000000 4200000000.000000 4200000000.000000 4200000000.000000 4200000000.000000 4200000000.000000 4200000000.000000 4300000000.000000 4300000000.000000 4300000000.000000 4300000000.000000 4300000000.000000 4300000000.000000 4400000000.000000 4400000000.000000 4400000000.000000 4400000000.000000 4400000000.000000 4400000000.000000 4500000000.000000 4500000000.000000 4500000000.000000 4500000000.000000 4500000000.000000 4500000000.000000 4600000000.000000 4600000000.000000 4600000000.000000 4600000000.000000 4600000000.000000 4600000000.000000 4700000000.000000 4700000000.000000 4700000000.000000 4700000000.000000 4700000000.000000 4700000000.000000 4800000000.000000 4800000000.000000 4800000000.000000 4800000000.000000 4800000000.000000 4800000000.000000 4900000000.000000 4900000000.000000 4900000000.000000 4900000000.000000 4900000000.000000 4900000000.000000 5000000000.000000 5000000000.000000 5000000000.000000 5000000000.000000 5000000000.000000 5000000000.000000
0.000000 0.000000 0.000000 0.000000 0.000000 0.000000 0.000000 0.000000 0.000000 0.000000 0.000000 0.000000 0.000000 0.000000 0.000000 0.000000 0.000000 0.000000 0.000000 0.000000 0.000000 0.000000 0.000000 0.000000 0.000000 0.000000 0.000000 0.000000 0.000000 0.000000 0.000000 0.000000 0.000000 0.000000 0.000000 0.000000 0.000000 0.000000 0.000000 0.000000 0.000000 0.000000 0.000000 0.000000 0.000000 0.000000 0.000000 0.000000 0.000000 0.000000 0.000000 0.000000 0.000000 0.000000 0.000000 0.000000 0.000000 0.000000 0.000000 0.000000 0.000000 0.000000 0.000000 0.000000 0.000000 0.000000 0.000000 0.000000 0.000000 0.000000 0.000000 0.000000 0.000000 0.000000 0.000000 0.000000 0.000000 0.000000 0.000000 0.000000 0.000000 0.000000 0.000000 0.000000 0.000000 0.000000 0.000000 0.000000 0.000000 0.000000 0.000000 0.000000 0.000000 0.000000 0.000000 0.000000 0.000000 0.000000 0.000000 0.000000 0.000000 0.000000 0.000000 0.000000 0.000000 0.000000 0.000000 0.000000 0.000000 0.000000 0.000000 0.000000 0.000000 0.000000 0.000000 0.000000 0.000000 0.000000 0.000000 0.000000 0.000000 0.000000 0.000000 0.000000 0.000000 0.000000 0.000000 0.000000 0.000000 0.000000 0.000000 0.000000 0.000000 0.000000 0.000000 0.000000 0.000000 0.000000 0.000000 0.000000 0.000000 0.000000 0.000000 0.000000 0.000000 0.000000 0.000000 0.000000 0.000000 0.000000 0.000000 0.000000 0.000000 0.000000 0.000000 0.000000 0.000000 0.000000 0.000000 0.000000 0.000000 0.000000 0.000000 0.000000 0.000000 0.000000 0.000000 0.000000 0.000000 0.000000 0.000000 0.000000 0.000000 0.000000 0.000000 0.000000 0.000000 0.000000 0.000000 0.000000 0.000000 0.000000 0.000000 0.000000 0.000000 0.000000 0.000000 0.000000 0.000000 0.000000 0.000000 0.000000 0.000000 0.000000 0.000000 0.000000 0.000000 0.000000 0.000000 0.000000 0.000000 0.000000 0.000000 0.000000 0.000000 0.000000 0.000000 0.000000 0.000000 0.000000 0.000000 0.000000 0.000000 0.000000 0.000000 0.000000 0.000000 0.000000 0.000000 0.000000 0.000000 0.000000 0.000000 0.000000 0.000000 0.000000 0.000000 0.000000 0.000000 0.000000 0.000000 0.000000 0.000000 0.000000 0.000000 0.000000 0.000000 0.000000 0.000000 0.000000 0.000000 0.000000 0.000000 0.000000 0.000000 0.000000 0.000000 0.000000 0.000000 0.000000 0.000000 0.000000 0.000000 0.000000 0.000000 0.000000 0.000000 0.000000 0.000000 0.000000 0.000000 0.000000 0.000000 0.000000 0.000000 0.000000 0.000000 0.000000 0.000000 0.000000 0.000000 0.000000 0.000000 0.000000 0.000000 0.000000 0.000000 0.000000 0.000000 0.000000 0.000000 0.000000 0.000000 0.000000 0.000000 0.000000 0.000000 0.000000 0.000000 0.000000 0.000000 0.000000 0.000000 0.000000 0.000000 0.000000 0.000000 0.000000 0.000000 0.000000 0.000000 0.000000 0.000000 0.000000 0.000000 0.000000
0.033557 0.048472 0.058059 0.064451 0.068180 0.033557 0.048472 0.058059 0.064451 0.068180 0.033557 0.048472 0.058059 0.064451 0.068180 0.033557 0.048472 0.058059 0.064451 0.068180 0.033557 0.048472 0.058059 0.064451 0.068180 0.033557 0.048472 0.058059 0.064451 0.068180 0.033557 0.048472 0.058059 0.064451 0.068180 0.033557 0.048472 0.058059 0.064451 0.068180 0.033557 0.048472 0.058059 0.064451 0.068180 0.033557 0.048472 0.058059 0.064451 0.068180 0.033557 0.048472 0.058059 0.064451 0.068180 0.033557 0.048472 0.058059 0.064451 0.068180 0.033557 0.048472 0.058059 0.064451 0.068180 0.033557 0.048472 0.058059 0.064451 0.068179 0.033557 0.048471 0.058059 0.064451 0.068179 0.033557 0.048472 0.058059 0.064451 0.068179 0.033557 0.048472 0.058059 0.064451 0.068179 0.033557 0.048472 0.058059 0.064451 0.068179 0.033557 0.048472 0.058059 0.064451 0.068179 0.033557 0.048472 0.058059 0.064451 0.068179 0.033557 0.048472 0.058059 0.064451 0.068179 0.033557 0.048472 0.058059 0.064451 0.068179 0.033557 0.048472 0.058059 0.064451 0.068179 0.033557 0.048472 0.058059 0.064451 0.068179 0.033557 0.048472 0.058059 0.064451 0.068179 0.033557 0.048472 0.058059 0.064451 0.068179 0.033557 0.048472 0.058059 0.064451 0.068179 0.033557 0.048471 0.058059 0.064451 0.068179 0.033557 0.048472 0.058059 0.064451 0.068179 0.033557 0.048472 0.058059 0.064451 0.068179 0.033557 0.048471 0.058059 0.064451 0.068179 0.033557 0.048472 0.058059 0.064451 0.068179 0.033557 0.048471 0.058059 0.064451 0.068179 0.033557 0.048472 0.058059 0.064451 0.068179 0.033557 0.048471 0.058059 0.064451 0.068179 0.033557 0.048472 0.058059 0.064451 0.068179 0.033557 0.048472 0.058059 0.064451 0.068179 0.033557 0.048472 0.058059 0.064451 0.068180 0.033558 0.048472 0.058059 0.064451 0.068180 0.033557 0.048471 0.058059 0.064451 0.068179 0.033557 0.048472 0.058059 0.064451 0.068179 0.033558 0.048472 0.058059 0.064451 0.068180 0.033557 0.048472 0.058059 0.064451 0.068179 0.033557 0.048471 0.058059 0.064451 0.068179 0.033557 0.048472 0.058059 0.064451 0.068179 0.033557 0.048472 0.058059 0.064451 0.068179 0.033557 0.048472 0.058059 0.064451 0.068179 0.033558 0.048472 0.058059 0.064451 0.068180 0.033557 0.048471 0.058059 0.064451 0.068179 0.033558 0.048472 0.058059 0.064451 0.068180 