Variables="X","Y","Z","GAMMA"
ZONE T="WING" i=6,j=51,k=1, ZONETYPE=Ordered
DATAPACKING=BLOCK
VARLOCATION=([4]=CELLCENTERED)
-0.000000 0.200000 0.400000 0.600000 0.800000 1.000000 -0.040000 0.160000 0.360000 0.560000 0.760000 0.960000 -0.080000 0.120000 0.320000 0.520000 0.720000 0.920000 -0.120000 0.080000 0.280000 0.480000 0.680000 0.880000 -0.160000 0.040000 0.240000 0.440000 0.640000 0.840000 -0.200000 -0.000000 0.200000 0.400000 0.600000 0.800000 -0.240000 -0.040000 0.160000 0.360000 0.560000 0.760000 -0.280000 -0.080000 0.120000 0.320000 0.520000 0.720000 -0.320000 -0.120000 0.080000 0.280000 0.480000 0.680000 -0.360000 -0.160000 0.040000 0.240000 0.440000 0.640000 -0.400000 -0.200000 -0.000000 0.200000 0.400000 0.600000 -0.440000 -0.240000 -0.040000 0.160000 0.360000 0.560000 -0.480000 -0.280000 -0.080000 0.120000 0.320000 0.520000 -0.520000 -0.320000 -0.120000 0.080000 0.280000 0.480000 -0.560000 -0.360000 -0.160000 0.040000 0.240000 0.440000 -0.600000 -0.400000 -0.200000 -0.000000 0.200000 0.400000 -0.640000 -0.440000 -0.240000 -0.040000 0.160000 0.360000 -0.680000 -0.480000 -0.280000 -0.080000 0.120000 0.320000 -0.720000 -0.520000 -0.320000 -0.120000 0.080000 0.280000 -0.760000 -0.560000 -0.360000 -0.160000 0.040000 0.240000 -0.800000 -0.600000 -0.400000 -0.200000 -0.000000 0.200000 -0.840000 -0.640000 -0.440000 -0.240000 -0.040000 0.160000 -0.880000 -0.680000 -0.480000 -0.280000 -0.080000 0.120000 -0.920000 -0.720000 -0.520000 -0.320000 -0.120000 0.080000 -0.960000 -0.760000 -0.560000 -0.360000 -0.160000 0.040000 -1.000000 -0.800000 -0.600000 -0.400000 -0.200000 -0.000000 -1.040000 -0.840000 -0.640000 -0.440000 -0.240000 -0.040000 -1.080000 -0.880000 -0.680000 -0.480000 -0.280000 -0.080000 -1.120000 -0.920000 -0.720000 -0.520000 -0.320000 -0.120000 -1.160000 -0.960000 -0.760000 -0.560000 -0.360000 -0.160000 -1.200000 -1.000000 -0.800000 -0.600000 -0.400000 -0.200000 -1.240000 -1.040000 -0.840000 -0.640000 -0.440000 -0.240000 -1.280000 -1.080000 -0.880000 -0.680000 -0.480000 -0.280000 -1.320000 -1.120000 -0.920000 -0.720000 -0.520000 -0.320000 -1.360000 -1.160000 -0.960000 -0.760000 -0.560000 -0.360000 -1.400000 -1.200000 -1.000000 -0.800000 -0.600000 -0.400000 -1.440000 -1.240000 -1.040000 -0.840000 -0.640000 -0.440000 -1.480000 -1.280000 -1.080000 -0.880000 -0.680000 -0.480000 -1.520000 -1.320000 -1.120000 -0.920000 -0.720000 -0.520000 -1.560000 -1.360000 -1.160000 -0.960000 -0.760000 -0.560000 -1.600000 -1.400000 -1.200000 -1.000000 -0.800000 -0.600000 -1.640000 -1.440000 -1.240000 -1.040000 -0.840000 -0.640000 -1.680000 -1.480000 -1.280000 -1.080000 -0.880000 -0.680000 -1.720000 -1.520000 -1.320000 -1.120000 -0.920000 -0.720000 -1.760000 -1.560000 -1.360000 -1.160000 -0.960000 -0.760000 -1.800000 -1.600000 -1.400000 -1.200000 -1.000000 -0.800000 -1.840000 -1.640000 -1.440000 -1.240000 -1.040000 -0.840000 -1.880000 -1.680000 -1.480000 -1.280000 -1.080000 -0.880000 -1.920000 -1.720000 -1.520000 -1.320000 -1.120000 -0.920000 -1.960000 -1.760000 -1.560000 -1.360000 -1.160000 -0.960000 -2.000000 -1.800000 -1.600000 -1.400000 -1.200000 -1.000000
0.000000 0.000000 0.000000 0.000000 0.000000 0.000000 0.040000 0.040000 0.040000 0.040000 0.040000 0.040000 0.080000 0.080000 0.080000 0.080000 0.080000 0.080000 0.120000 0.120000 0.120000 0.120000 0.120000 0.120000 0.160000 0.160000 0.160000 0.160000 0.160000 0.160000 0.200000 0.200000 0.200000 0.200000 0.200000 0.200000 0.240000 0.240000 0.240000 0.240000 0.240000 0.240000 0.280000 0.280000 0.280000 0.280000 0.280000 0.280000 0.320000 0.320000 0.320000 0.320000 0.320000 0.320000 0.360000 0.360000 0.360000 0.360000 0.360000 0.360000 0.400000 0.400000 0.400000 0.400000 0.400000 0.400000 0.440000 0.440000 0.440000 0.440000 0.440000 0.440000 0.480000 0.480000 0.480000 0.480000 0.480000 0.480000 0.520000 0.520000 0.520000 0.520000 0.520000 0.520000 0.560000 0.560000 0.560000 0.560000 0.560000 0.560000 0.600000 0.600000 0.600000 0.600000 0.600000 0.600000 0.640000 0.640000 0.640000 0.640000 0.640000 0.640000 0.680000 0.680000 0.680000 0.680000 0.680000 0.680000 0.720000 0.720000 0.720000 0.720000 0.720000 0.720000 0.760000 0.760000 0.760000 0.760000 0.760000 0.760000 0.800000 0.800000 0.800000 0.800000 0.800000 0.800000 0.840000 0.840000 0.840000 0.840000 0.840000 0.840000 0.880000 0.880000 0.880000 0.880000 0.880000 0.880000 0.920000 0.920000 0.920000 0.920000 0.920000 0.920000 0.960000 0.960000 0.960000 0.960000 0.960000 0.960000 1.000000 1.000000 1.000000 1.000000 1.000000 1.000000 1.040000 1.040000 1.040000 1.040000 1.040000 1.040000 1.080000 1.080000 1.080000 1.080000 1.080000 1.080000 1.120000 1.120000 1.120000 1.120000 1.120000 1.120000 1.160000 1.160000 1.160000 1.160000 1.160000 1.160000 1.200000 1.200000 1.200000 1.200000 1.200000 1.200000 1.240000 1.240000 1.240000 1.240000 1.240000 1.240000 1.280000 1.280000 1.280000 1.280000 1.280000 1.280000 1.320000 1.320000 1.320000 1.320000 1.320000 1.320000 1.360000 1.360000 1.360000 1.360000 1.360000 1.360000 1.400000 1.400000 1.400000 1.400000 1.400000 1.400000 1.440000 1.440000 1.440000 1.440000 1.440000 1.440000 1.480000 1.480000 1.480000 1.480000 1.480000 1.480000 1.520000 1.520000 1.520000 1.520000 1.520000 1.520000 1.560000 1.560000 1.560000 1.560000 1.560000 1.560000 1.600000 1.600000 1.600000 1.600000 1.600000 1.600000 1.640000 1.640000 1.640000 1.640000 1.640000 1.640000 1.680000 1.680000 1.680000 1.680000 1.680000 1.680000 1.720000 1.720000 1.720000 1.720000 1.720000 1.720000 1.760000 1.760000 1.760000 1.760000 1.760000 1.760000 1.800000 1.800000 1.800000 1.800000 1.800000 1.800000 1.840000 1.840000 1.840000 1.840000 1.840000 1.840000 1.880000 1.880000 1.880000 1.880000 1.880000 1.880000 1.920000 1.920000 1.920000 1.920000 1.920000 1.920000 1.960000 1.960000 1.960000 1.960000 1.960000 1.960000 2.000000 2.000000 2.000000 2.000000 2.000000 2.000000
0.000000 0.000000 0.000000 0.000000 0.000000 0.000000 0.000000 0.000000 0.000000 0.000000 0.000000 0.000000 0.000000 0.000000 0.000000 0.000000 0.000000 0.000000 0.000000 0.000000 0.000000 0.000000 0.000000 0.000000 0.000000 0.000000 0.000000 0.000000 0.000000 0.000000 0.000000 0.000000 0.000000 0.000000 0.000000 0.000000 0.000000 0.000000 0.000000 0.000000 0.000000 0.000000 0.000000 0.000000 0.000000 0.000000 0.000000 0.000000 0.000000 0.000000 0.000000 0.000000 0.000000 0.000000 0.000000 0.000000 0.000000 0.000000 0.000000 0.000000 0.000000 0.000000 0.000000 0.000000 0.000000 0.000000 0.000000 0.000000 0.000000 0.000000 0.000000 0.000000 0.000000 0.000000 0.000000 0.000000 0.000000 0.000000 0.000000 0.000000 0.000000 0.000000 0.000000 0.000000 0.000000 0.000000 0.000000 0.000000 0.000000 0.000000 0.000000 0.000000 0.000000 0.000000 0.000000 0.000000 0.000000 0.000000 0.000000 0.000000 0.000000 0.000000 0.000000 0.000000 0.000000 0.000000 0.000000 0.000000 0.000000 0.000000 0.000000 0.000000 0.000000 0.000000 0.000000 0.000000 0.000000 0.000000 0.000000 0.000000 0.000000 0.000000 0.000000 0.000000 0.000000 0.000000 0.000000 0.000000 0.000000 0.000000 0.000000 0.000000 0.000000 0.000000 0.000000 0.000000 0.000000 0.000000 0.000000 0.000000 0.000000 0.000000 0.000000 0.000000 0.000000 0.000000 0.000000 0.000000 0.000000 0.000000 0.000000 0.000000 0.000000 0.000000 0.000000 0.000000 0.000000 0.000000 0.000000 0.000000 0.000000 0.000000 0.000000 0.000000 0.000000 0.000000 0.000000 0.000000 0.000000 0.000000 0.000000 0.000000 0.000000 0.000000 0.000000 0.000000 0.000000 0.000000 0.000000 0.000000 0.000000 0.000000 0.000000 0.000000 0.000000 0.000000 0.000000 0.000000 0.000000 0.000000 0.000000 0.000000 0.000000 0.000000 0.000000 0.000000 0.000000 0.000000 0.000000 0.000000 0.000000 0.000000 0.000000 0.000000 0.000000 0.000000 0.000000 0.000000 0.000000 0.000000 0.000000 0.000000 0.000000 0.000000 0.000000 0.000000 0.000000 0.000000 0.000000 0.000000 0.000000 0.000000 0.000000 0.000000 0.000000 0.000000 0.000000 0.000000 0.000000 0.000000 0.000000 0.000000 0.000000 0.000000 0.000000 0.000000 0.000000 0.000000 0.000000 0.000000 0.000000 0.000000 0.000000 0.000000 0.000000 0.000000 0.000000 0.000000 0.000000 0.000000 0.000000 0.000000 0.000000 0.000000 0.000000 0.000000 0.000000 0.000000 0.000000 0.000000 0.000000 0.000000 0.000000 0.000000 0.000000 0.000000 0.000000 0.000000 0.000000 0.000000 0.000000 0.000000 0.000000 0.000000 0.000000 0.000000 0.000000 0.000000 0.000000 0.000000 0.000000 0.000000 0.000000 0.000000 0.000000 0.000000 0.000000 0.000000 0.000000 0.000000 0.000000 0.000000 0.000000 0.000000 0.000000 0.000000 0.000000 0.000000 0.000000 0.000000 0.000000 0.000000 0.000000 0.000000 0.000000 0.000000
0.059803 0.077114 0.085792 0.090347 0.092316 0.056595 0.075507 0.084874 0.089819 0.092024 0.053016 0.073435 0.083633 0.089060 0.091547 0.050038 0.071272 0.082254 0.088166 0.090934 0.047696 0.069147 0.080793 0.087168 0.090207 0.045844 0.067133 0.079284 0.086086 0.089385 0.044348 0.065275 0.077760 0.084938 0.088481 0.043112 0.063589 0.076253 0.083743 0.087511 0.042064 0.062070 0.074784 0.082519 0.086489 0.041158 0.060702 0.073371 0.081281 0.085425 0.040357 0.059465 0.072022 0.080044 0.084332 0.039638 0.058339 0.070741 0.078819 0.083221 0.038981 0.057305 0.069526 0.077613 0.082099 0.038374 0.056346 0.068375 0.076432 0.080974 0.037805 0.055450 0.067280 0.075279 0.079853 0.037265 0.054603 0.066234 0.074156 0.078739 0.036749 0.053797 0.065232 0.073061 0.077634 0.036249 0.053022 0.064266 0.071991 0.076541 0.035763 0.052271 0.063328 0.070945 0.075460 0.035285 0.051539 0.062414 0.069919 0.074389 0.034813 0.050819 0.061517 0.068907 0.073326 0.034343 0.050106 0.060632 0.067907 0.072270 0.033873 0.049397 0.059753 0.066914 0.071218 0.033400 0.048687 0.058877 0.065922 0.070165 0.032921 0.047973 0.057997 0.064929 0.069108 0.032436 0.047250 0.057110 0.063928 0.068043 0.031940 0.046515 0.056212 0.062916 0.066966 0.031433 0.045766 0.055297 0.061889 0.065873 0.030911 0.044998 0.054363 0.060841 0.064759 0.030374 0.044207 0.053404 0.059767 0.063619 0.029818 0.043391 0.052416 0.058663 0.062448 0.029241 0.042546 0.051394 0.057523 0.061240 0.028641 0.041667 0.050334 0.056342 0.059989 0.028014 0.040750 0.049228 0.055112 0.058690 0.027358 0.039790 0.048073 0.053829 0.057334 0.026670 0.038782 0.046860 0.052483 0.055913 0.025945 0.037720 0.045582 0.051066 0.054419 0.025180 0.036598 0.044230 0.049568 0.052841 0.024368 0.035406 0.042795 0.047977 0.051167 0.023505 0.034136 0.041264 0.046281 0.049382 0.022583 0.032776 0.039622 0.044461 0.047468 0.021593 0.031313 0.037853 0.042497 0.045402 0.020523 0.029728 0.035932 0.040363 0.043158 0.019358 0.027997 0.033831 0.038024 0.040697 0.018075 0.026089 0.031510 0.035434 0.037969 0.016644 0.023956 0.028912 0.032527 0.034902 0.015013 0.021526 0.025948 0.029201 0.031384 0.013094 0.018673 0.022470 0.025287 0.027226 0.010710 0.015148 0.018180 0.020450 0.022058 0.007362 0.010278 0.012284 0.013799 0.014903 