Variables="X","Y","Z","GAMMA"
ZONE T="WING" i=6,j=51,k=1, ZONETYPE=Ordered
DATAPACKING=BLOCK
VARLOCATION=([4]=CELLCENTERED)
0.000000 0.200000 0.400000 0.600000 0.800000 1.000000 0.040000 0.240000 0.440000 0.640000 0.840000 1.040000 0.080000 0.280000 0.480000 0.680000 0.880000 1.080000 0.120000 0.320000 0.520000 0.720000 0.920000 1.120000 0.160000 0.360000 0.560000 0.760000 0.960000 1.160000 0.200000 0.400000 0.600000 0.800000 1.000000 1.200000 0.240000 0.440000 0.640000 0.840000 1.040000 1.240000 0.280000 0.480000 0.680000 0.880000 1.080000 1.280000 0.320000 0.520000 0.720000 0.920000 1.120000 1.320000 0.360000 0.560000 0.760000 0.960000 1.160000 1.360000 0.400000 0.600000 0.800000 1.000000 1.200000 1.400000 0.440000 0.640000 0.840000 1.040000 1.240000 1.440000 0.480000 0.680000 0.880000 1.080000 1.280000 1.480000 0.520000 0.720000 0.920000 1.120000 1.320000 1.520000 0.560000 0.760000 0.960000 1.160000 1.360000 1.560000 0.600000 0.800000 1.000000 1.200000 1.400000 1.600000 0.640000 0.840000 1.040000 1.240000 1.440000 1.640000 0.680000 0.880000 1.080000 1.280000 1.480000 1.680000 0.720000 0.920000 1.120000 1.320000 1.520000 1.720000 0.760000 0.960000 1.160000 1.360000 1.560000 1.760000 0.800000 1.000000 1.200000 1.400000 1.600000 1.800000 0.840000 1.040000 1.240000 1.440000 1.640000 1.840000 0.880000 1.080000 1.280000 1.480000 1.680000 1.880000 0.920000 1.120000 1.320000 1.520000 1.720000 1.920000 0.960000 1.160000 1.360000 1.560000 1.760000 1.960000 1.000000 1.200000 1.400000 1.600000 1.800000 2.000000 1.040000 1.240000 1.440000 1.640000 1.840000 2.040000 1.080000 1.280000 1.480000 1.680000 1.880000 2.080000 1.120000 1.320000 1.520000 1.720000 1.920000 2.120000 1.160000 1.360000 1.560000 1.760000 1.960000 2.160000 1.200000 1.400000 1.600000 1.800000 2.000000 2.200000 1.240000 1.440000 1.640000 1.840000 2.040000 2.240000 1.280000 1.480000 1.680000 1.880000 2.080000 2.280000 1.320000 1.520000 1.720000 1.920000 2.120000 2.320000 1.360000 1.560000 1.760000 1.960000 2.160000 2.360000 1.400000 1.600000 1.800000 2.000000 2.200000 2.400000 1.440000 1.640000 1.840000 2.040000 2.240000 2.440000 1.480000 1.680000 1.880000 2.080000 2.280000 2.480000 1.520000 1.720000 1.920000 2.120000 2.320000 2.520000 1.560000 1.760000 1.960000 2.160000 2.360000 2.560000 1.600000 1.800000 2.000000 2.200000 2.400000 2.600000 1.640000 1.840000 2.040000 2.240000 2.440000 2.640000 1.680000 1.880000 2.080000 2.280000 2.480000 2.680000 1.720000 1.920000 2.120000 2.320000 2.520000 2.720000 1.760000 1.960000 2.160000 2.360000 2.560000 2.760000 1.800000 2.000000 2.200000 2.400000 2.600000 2.800000 1.840000 2.040000 2.240000 2.440000 2.640000 2.840000 1.880000 2.080000 2.280000 2.480000 2.680000 2.880000 1.920000 2.120000 2.320000 2.520000 2.720000 2.920000 1.960000 2.160000 2.360000 2.560000 2.760000 2.960000 2.000000 2.200000 2.400000 2.600000 2.800000 3.000000
0.000000 0.000000 0.000000 0.000000 0.000000 0.000000 0.040000 0.040000 0.040000 0.040000 0.040000 0.040000 0.080000 0.080000 0.080000 0.080000 0.080000 0.080000 0.120000 0.120000 0.120000 0.120000 0.120000 0.120000 0.160000 0.160000 0.160000 0.160000 0.160000 0.160000 0.200000 0.200000 0.200000 0.200000 0.200000 0.200000 0.240000 0.240000 0.240000 0.240000 0.240000 0.240000 0.280000 0.280000 0.280000 0.280000 0.280000 0.280000 0.320000 0.320000 0.320000 0.320000 0.320000 0.320000 0.360000 0.360000 0.360000 0.360000 0.360000 0.360000 0.400000 0.400000 0.400000 0.400000 0.400000 0.400000 0.440000 0.440000 0.440000 0.440000 0.440000 0.440000 0.480000 0.480000 0.480000 0.480000 0.480000 0.480000 0.520000 0.520000 0.520000 0.520000 0.520000 0.520000 0.560000 0.560000 0.560000 0.560000 0.560000 0.560000 0.600000 0.600000 0.600000 0.600000 0.600000 0.600000 0.640000 0.640000 0.640000 0.640000 0.640000 0.640000 0.680000 0.680000 0.680000 0.680000 0.680000 0.680000 0.720000 0.720000 0.720000 0.720000 0.720000 0.720000 0.760000 0.760000 0.760000 0.760000 0.760000 0.760000 0.800000 0.800000 0.800000 0.800000 0.800000 0.800000 0.840000 0.840000 0.840000 0.840000 0.840000 0.840000 0.880000 0.880000 0.880000 0.880000 0.880000 0.880000 0.920000 0.920000 0.920000 0.920000 0.920000 0.920000 0.960000 0.960000 0.960000 0.960000 0.960000 0.960000 1.000000 1.000000 1.000000 1.000000 1.000000 1.000000 1.040000 1.040000 1.040000 1.040000 1.040000 1.040000 1.080000 1.080000 1.080000 1.080000 1.080000 1.080000 1.120000 1.120000 1.120000 1.120000 1.120000 1.120000 1.160000 1.160000 1.160000 1.160000 1.160000 1.160000 1.200000 1.200000 1.200000 1.200000 1.200000 1.200000 1.240000 1.240000 1.240000 1.240000 1.240000 1.240000 1.280000 1.280000 1.280000 1.280000 1.280000 1.280000 1.320000 1.320000 1.320000 1.320000 1.320000 1.320000 1.360000 1.360000 1.360000 1.360000 1.360000 1.360000 1.400000 1.400000 1.400000 1.400000 1.400000 1.400000 1.440000 1.440000 1.440000 1.440000 1.440000 1.440000 1.480000 1.480000 1.480000 1.480000 1.480000 1.480000 1.520000 1.520000 1.520000 1.520000 1.520000 1.520000 1.560000 1.560000 1.560000 1.560000 1.560000 1.560000 1.600000 1.600000 1.600000 1.600000 1.600000 1.600000 1.640000 1.640000 1.640000 1.640000 1.640000 1.640000 1.680000 1.680000 1.680000 1.680000 1.680000 1.680000 1.720000 1.720000 1.720000 1.720000 1.720000 1.720000 1.760000 1.760000 1.760000 1.760000 1.760000 1.760000 1.800000 1.800000 1.800000 1.800000 1.800000 1.800000 1.840000 1.840000 1.840000 1.840000 1.840000 1.840000 1.880000 1.880000 1.880000 1.880000 1.880000 1.880000 1.920000 1.920000 1.920000 1.920000 1.920000 1.920000 1.960000 1.960000 1.960000 1.960000 1.960000 1.960000 2.000000 2.000000 2.000000 2.000000 2.000000 2.000000
0.000000 0.000000 0.000000 0.000000 0.000000 0.000000 0.000000 0.000000 0.000000 0.000000 0.000000 0.000000 0.000000 0.000000 0.000000 0.000000 0.000000 0.000000 0.000000 0.000000 0.000000 0.000000 0.000000 0.000000 0.000000 0.000000 0.000000 0.000000 0.000000 0.000000 0.000000 0.000000 0.000000 0.000000 0.000000 0.000000 0.000000 0.000000 0.000000 0.000000 0.000000 0.000000 0.000000 0.000000 0.000000 0.000000 0.000000 0.000000 0.000000 0.000000 0.000000 0.000000 0.000000 0.000000 0.000000 0.000000 0.000000 0.000000 0.000000 0.000000 0.000000 0.000000 0.000000 0.000000 0.000000 0.000000 0.000000 0.000000 0.000000 0.000000 0.000000 0.000000 0.000000 0.000000 0.000000 0.000000 0.000000 0.000000 0.000000 0.000000 0.000000 0.000000 0.000000 0.000000 0.000000 0.000000 0.000000 0.000000 0.000000 0.000000 0.000000 0.000000 0.000000 0.000000 0.000000 0.000000 0.000000 0.000000 0.000000 0.000000 0.000000 0.000000 0.000000 0.000000 0.000000 0.000000 0.000000 0.000000 0.000000 0.000000 0.000000 0.000000 0.000000 0.000000 0.000000 0.000000 0.000000 0.000000 0.000000 0.000000 0.000000 0.000000 0.000000 0.000000 0.000000 0.000000 0.000000 0.000000 0.000000 0.000000 0.000000 0.000000 0.000000 0.000000 0.000000 0.000000 0.000000 0.000000 0.000000 0.000000 0.000000 0.000000 0.000000 0.000000 0.000000 0.000000 0.000000 0.000000 0.000000 0.000000 0.000000 0.000000 0.000000 0.000000 0.000000 0.000000 0.000000 0.000000 0.000000 0.000000 0.000000 0.000000 0.000000 0.000000 0.000000 0.000000 0.000000 0.000000 0.000000 0.000000 0.000000 0.000000 0.000000 0.000000 0.000000 0.000000 0.000000 0.000000 0.000000 0.000000 0.000000 0.000000 0.000000 0.000000 0.000000 0.000000 0.000000 0.000000 0.000000 0.000000 0.000000 0.000000 0.000000 0.000000 0.000000 0.000000 0.000000 0.000000 0.000000 0.000000 0.000000 0.000000 0.000000 0.000000 0.000000 0.000000 0.000000 0.000000 0.000000 0.000000 0.000000 0.000000 0.000000 0.000000 0.000000 0.000000 0.000000 0.000000 0.000000 0.000000 0.000000 0.000000 0.000000 0.000000 0.000000 0.000000 0.000000 0.000000 0.000000 0.000000 0.000000 0.000000 0.000000 0.000000 0.000000 0.000000 0.000000 0.000000 0.000000 0.000000 0.000000 0.000000 0.000000 0.000000 0.000000 0.000000 0.000000 0.000000 0.000000 0.000000 0.000000 0.000000 0.000000 0.000000 0.000000 0.000000 0.000000 0.000000 0.000000 0.000000 0.000000 0.000000 0.000000 0.000000 0.000000 0.000000 0.000000 0.000000 0.000000 0.000000 0.000000 0.000000 0.000000 0.000000 0.000000 0.000000 0.000000 0.000000 0.000000 0.000000 0.000000 0.000000 0.000000 0.000000 0.000000 0.000000 0.000000 0.000000 0.000000 0.000000 0.000000 0.000000 0.000000 0.000000 0.000000 0.000000 0.000000 0.000000 0.000000 0.000000 0.000000 0.000000 0.000000 0.000000 0.000000 0.000000
0.023000 0.038241 0.050149 0.059394 0.065754 0.024571 0.039672 0.051341 0.060305 0.066271 0.026192 0.041245 0.052678 0.061328 0.066872 0.027600 0.042683 0.053925 0.062285 0.067486 0.028797 0.043955 0.055042 0.063149 0.068090 0.029823 0.045076 0.056037 0.063927 0.068672 0.030710 0.046063 0.056922 0.064631 0.069225 0.031484 0.046936 0.057709 0.065269 0.069748 0.032163 0.047709 0.058413 0.065851 0.070239 0.032762 0.048395 0.059042 0.066382 0.070697 0.033292 0.049007 0.059608 0.066867 0.071123 0.033763 0.049553 0.060117 0.067310 0.071517 0.034183 0.050041 0.060576 0.067714 0.071879 0.034558 0.050479 0.060990 0.068081 0.072209 0.034894 0.050871 0.061363 0.068413 0.072508 0.035195 0.051224 0.061698 0.068712 0.072775 0.035465 0.051540 0.061998 0.068978 0.073010 0.035707 0.051822 0.062265 0.069211 0.073214 0.035924 0.052074 0.062500 0.069413 0.073384 0.036117 0.052296 0.062705 0.069582 0.073520 0.036290 0.052491 0.062878 0.069719 0.073622 0.036442 0.052659 0.063022 0.069822 0.073687 0.036575 0.052802 0.063135 0.069889 0.073713 0.036690 0.052919 0.063217 0.069921 0.073698 0.036787 0.053010 0.063266 0.069913 0.073639 0.036867 0.053075 0.063281 0.069865 0.073533 0.036929 0.053112 0.063260 0.069771 0.073375 0.036974 0.053122 0.063201 0.069629 0.073161 0.037000 0.053101 0.063100 0.069433 0.072885 0.037008 0.053049 0.062953 0.069179 0.072541 0.036996 0.052961 0.062756 0.068859 0.072121 0.036962 0.052835 0.062502 0.068466 0.071616 0.036905 0.052666 0.062185 0.067991 0.071018 0.036822 0.052450 0.061795 0.067423 0.070314 0.036711 0.052179 0.061323 0.066749 0.069493 0.036568 0.051844 0.060756 0.065955 0.068539 0.036388 0.051437 0.060078 0.065024 0.067436 0.036165 0.050943 0.059271 0.063935 0.066166 0.035892 0.050346 0.058311 0.062667 0.064709 0.035559 0.049623 0.057171 0.061192 0.063039 0.035152 0.048747 0.055817 0.059480 0.061130 0.034653 0.047678 0.054206 0.057493 0.058947 0.034034 0.046367 0.052288 0.055188 0.056451 0.033258 0.044745 0.049999 0.052509 0.053589 0.032263 0.042719 0.047258 0.049386 0.050292 0.030954 0.040162 0.043960 0.045718 0.046462 0.029167 0.036891 0.039947 0.041358 0.041952 0.026601 0.032631 0.034970 0.036054 0.036510 0.022668 0.026882 0.028538 0.029315 0.029642 0.016002 0.018401 0.019381 0.019847 0.020044 