Variables="X","Y","Z","GAMMA"
ZONE T="WING" i=6,j=51,k=1, ZONETYPE=Ordered
DATAPACKING=BLOCK
VARLOCATION=([4]=CELLCENTERED)
0.000000 0.200000 0.400000 0.600000 0.800000 1.000000 0.000000 0.200000 0.400000 0.600000 0.800000 1.000000 0.000000 0.200000 0.400000 0.600000 0.800000 1.000000 0.000000 0.200000 0.400000 0.600000 0.800000 1.000000 0.000000 0.200000 0.400000 0.600000 0.800000 1.000000 0.000000 0.200000 0.400000 0.600000 0.800000 1.000000 0.000000 0.200000 0.400000 0.600000 0.800000 1.000000 0.000000 0.200000 0.400000 0.600000 0.800000 1.000000 0.000000 0.200000 0.400000 0.600000 0.800000 1.000000 0.000000 0.200000 0.400000 0.600000 0.800000 1.000000 0.000000 0.200000 0.400000 0.600000 0.800000 1.000000 0.000000 0.200000 0.400000 0.600000 0.800000 1.000000 0.000000 0.200000 0.400000 0.600000 0.800000 1.000000 0.000000 0.200000 0.400000 0.600000 0.800000 1.000000 0.000000 0.200000 0.400000 0.600000 0.800000 1.000000 0.000000 0.200000 0.400000 0.600000 0.800000 1.000000 0.000000 0.200000 0.400000 0.600000 0.800000 1.000000 0.000000 0.200000 0.400000 0.600000 0.800000 1.000000 0.000000 0.200000 0.400000 0.600000 0.800000 1.000000 0.000000 0.200000 0.400000 0.600000 0.800000 1.000000 0.000000 0.200000 0.400000 0.600000 0.800000 1.000000 0.000000 0.200000 0.400000 0.600000 0.800000 1.000000 0.000000 0.200000 0.400000 0.600000 0.800000 1.000000 0.000000 0.200000 0.400000 0.600000 0.800000 1.000000 0.000000 0.200000 0.400000 0.600000 0.800000 1.000000 0.000000 0.200000 0.400000 0.600000 0.800000 1.000000 0.000000 0.200000 0.400000 0.600000 0.800000 1.000000 0.000000 0.200000 0.400000 0.600000 0.800000 1.000000 0.000000 0.200000 0.400000 0.600000 0.800000 1.000000 0.000000 0.200000 0.400000 0.600000 0.800000 1.000000 0.000000 0.200000 0.400000 0.600000 0.800000 1.000000 0.000000 0.200000 0.400000 0.600000 0.800000 1.000000 0.000000 0.200000 0.400000 0.600000 0.800000 1.000000 0.000000 0.200000 0.400000 0.600000 0.800000 1.000000 0.000000 0.200000 0.400000 0.600000 0.800000 1.000000 0.000000 0.200000 0.400000 0.600000 0.800000 1.000000 0.000000 0.200000 0.400000 0.600000 0.800000 1.000000 0.000000 0.200000 0.400000 0.600000 0.800000 1.000000 0.000000 0.200000 0.400000 0.600000 0.800000 1.000000 0.000000 0.200000 0.400000 0.600000 0.800000 1.000000 0.000000 0.200000 0.400000 0.600000 0.800000 1.000000 0.000000 0.200000 0.400000 0.600000 0.800000 1.000000 0.000000 0.200000 0.400000 0.600000 0.800000 1.000000 0.000000 0.200000 0.400000 0.600000 0.800000 1.000000 0.000000 0.200000 0.400000 0.600000 0.800000 1.000000 0.000000 0.200000 0.400000 0.600000 0.800000 1.000000 0.000000 0.200000 0.400000 0.600000 0.800000 1.000000 0.000000 0.200000 0.400000 0.600000 0.800000 1.000000 0.000000 0.200000 0.400000 0.600000 0.800000 1.000000 0.000000 0.200000 0.400000 0.600000 0.800000 1.000000 0.000000 0.200000 0.400000 0.600000 0.800000 1.000000
0.000000 0.000000 0.000000 0.000000 0.000000 0.000000 0.040000 0.040000 0.040000 0.040000 0.040000 0.040000 0.080000 0.080000 0.080000 0.080000 0.080000 0.080000 0.120000 0.120000 0.120000 0.120000 0.120000 0.120000 0.160000 0.160000 0.160000 0.160000 0.160000 0.160000 0.200000 0.200000 0.200000 0.200000 0.200000 0.200000 0.240000 0.240000 0.240000 0.240000 0.240000 0.240000 0.280000 0.280000 0.280000 0.280000 0.280000 0.280000 0.320000 0.320000 0.320000 0.320000 0.320000 0.320000 0.360000 0.360000 0.360000 0.360000 0.360000 0.360000 0.400000 0.400000 0.400000 0.400000 0.400000 0.400000 0.440000 0.440000 0.440000 0.440000 0.440000 0.440000 0.480000 0.480000 0.480000 0.480000 0.480000 0.480000 0.520000 0.520000 0.520000 0.520000 0.520000 0.520000 0.560000 0.560000 0.560000 0.560000 0.560000 0.560000 0.600000 0.600000 0.600000 0.600000 0.600000 0.600000 0.640000 0.640000 0.640000 0.640000 0.640000 0.640000 0.680000 0.680000 0.680000 0.680000 0.680000 0.680000 0.720000 0.720000 0.720000 0.720000 0.720000 0.720000 0.760000 0.760000 0.760000 0.760000 0.760000 0.760000 0.800000 0.800000 0.800000 0.800000 0.800000 0.800000 0.840000 0.840000 0.840000 0.840000 0.840000 0.840000 0.880000 0.880000 0.880000 0.880000 0.880000 0.880000 0.920000 0.920000 0.920000 0.920000 0.920000 0.920000 0.960000 0.960000 0.960000 0.960000 0.960000 0.960000 1.000000 1.000000 1.000000 1.000000 1.000000 1.000000 1.040000 1.040000 1.040000 1.040000 1.040000 1.040000 1.080000 1.080000 1.080000 1.080000 1.080000 1.080000 1.120000 1.120000 1.120000 1.120000 1.120000 1.120000 1.160000 1.160000 1.160000 1.160000 1.160000 1.160000 1.200000 1.200000 1.200000 1.200000 1.200000 1.200000 1.240000 1.240000 1.240000 1.240000 1.240000 1.240000 1.280000 1.280000 1.280000 1.280000 1.280000 1.280000 1.320000 1.320000 1.320000 1.320000 1.320000 1.320000 1.360000 1.360000 1.360000 1.360000 1.360000 1.360000 1.400000 1.400000 1.400000 1.400000 1.400000 1.400000 1.440000 1.440000 1.440000 1.440000 1.440000 1.440000 1.480000 1.480000 1.480000 1.480000 1.480000 1.480000 1.520000 1.520000 1.520000 1.520000 1.520000 1.520000 1.560000 1.560000 1.560000 1.560000 1.560000 1.560000 1.600000 1.600000 1.600000 1.600000 1.600000 1.600000 1.640000 1.640000 1.640000 1.640000 1.640000 1.640000 1.680000 1.680000 1.680000 1.680000 1.680000 1.680000 1.720000 1.720000 1.720000 1.720000 1.720000 1.720000 1.760000 1.760000 1.760000 1.760000 1.760000 1.760000 1.800000 1.800000 1.800000 1.800000 1.800000 1.800000 1.840000 1.840000 1.840000 1.840000 1.840000 1.840000 1.880000 1.880000 1.880000 1.880000 1.880000 1.880000 1.920000 1.920000 1.920000 1.920000 1.920000 1.920000 1.960000 1.960000 1.960000 1.960000 1.960000 1.960000 2.000000 2.000000 2.000000 2.000000 2.000000 2.000000
0.000000 0.000000 0.000000 0.000000 0.000000 0.000000 0.000000 0.000000 0.000000 0.000000 0.000000 0.000000 0.000000 0.000000 0.000000 0.000000 0.000000 0.000000 0.000000 0.000000 0.000000 0.000000 0.000000 0.000000 0.000000 0.000000 0.000000 0.000000 0.000000 0.000000 0.000000 0.000000 0.000000 0.000000 0.000000 0.000000 0.000000 0.000000 0.000000 0.000000 0.000000 0.000000 0.000000 0.000000 0.000000 0.000000 0.000000 0.000000 0.000000 0.000000 0.000000 0.000000 0.000000 0.000000 0.000000 0.000000 0.000000 0.000000 0.000000 0.000000 0.000000 0.000000 0.000000 0.000000 0.000000 0.000000 0.000000 0.000000 0.000000 0.000000 0.000000 0.000000 0.000000 0.000000 0.000000 0.000000 0.000000 0.000000 0.000000 0.000000 0.000000 0.000000 0.000000 0.000000 0.000000 0.000000 0.000000 0.000000 0.000000 0.000000 0.000000 0.000000 0.000000 0.000000 0.000000 0.000000 0.000000 0.000000 0.000000 0.000000 0.000000 0.000000 0.000000 0.000000 0.000000 0.000000 0.000000 0.000000 0.000000 0.000000 0.000000 0.000000 0.000000 0.000000 0.000000 0.000000 0.000000 0.000000 0.000000 0.000000 0.000000 0.000000 0.000000 0.000000 0.000000 0.000000 0.000000 0.000000 0.000000 0.000000 0.000000 0.000000 0.000000 0.000000 0.000000 0.000000 0.000000 0.000000 0.000000 0.000000 0.000000 0.000000 0.000000 0.000000 0.000000 0.000000 0.000000 0.000000 0.000000 0.000000 0.000000 0.000000 0.000000 0.000000 0.000000 0.000000 0.000000 0.000000 0.000000 0.000000 0.000000 0.000000 0.000000 0.000000 0.000000 0.000000 0.000000 0.000000 0.000000 0.000000 0.000000 0.000000 0.000000 0.000000 0.000000 0.000000 0.000000 0.000000 0.000000 0.000000 0.000000 0.000000 0.000000 0.000000 0.000000 0.000000 0.000000 0.000000 0.000000 0.000000 0.000000 0.000000 0.000000 0.000000 0.000000 0.000000 0.000000 0.000000 0.000000 0.000000 0.000000 0.000000 0.000000 0.000000 0.000000 0.000000 0.000000 0.000000 0.000000 0.000000 0.000000 0.000000 0.000000 0.000000 0.000000 0.000000 0.000000 0.000000 0.000000 0.000000 0.000000 0.000000 0.000000 0.000000 0.000000 0.000000 0.000000 0.000000 0.000000 0.000000 0.000000 0.000000 0.000000 0.000000 0.000000 0.000000 0.000000 0.000000 0.000000 0.000000 0.000000 0.000000 0.000000 0.000000 0.000000 0.000000 0.000000 0.000000 0.000000 0.000000 0.000000 0.000000 0.000000 0.000000 0.000000 0.000000 0.000000 0.000000 0.000000 0.000000 0.000000 0.000000 0.000000 0.000000 0.000000 0.000000 0.000000 0.000000 0.000000 0.000000 0.000000 0.000000 0.000000 0.000000 0.000000 0.000000 0.000000 0.000000 0.000000 0.000000 0.000000 0.000000 0.000000 0.000000 0.000000 0.000000 0.000000 0.000000 0.000000 0.000000 0.000000 0.000000 0.000000 0.000000 0.000000 0.000000 0.000000 0.000000 0.000000 0.000000 0.000000 0.000000 0.000000 0.000000 0.000000 0.000000
0.048652 0.069611 0.082693 0.091183 0.096023 0.048642 0.069595 0.082673 0.091160 0.095998 0.048622 0.069564 0.082633 0.091114 0.095948 0.048591 0.069516 0.082573 0.091045 0.095873 0.048550 0.069453 0.082493 0.090953 0.095773 0.048499 0.069373 0.082392 0.090837 0.095648 0.048437 0.069277 0.082271 0.090697 0.095496 0.048364 0.069165 0.082129 0.090533 0.095319 0.048280 0.069035 0.081965 0.090344 0.095114 0.048186 0.068889 0.081780 0.090130 0.094883 0.048079 0.068724 0.081572 0.089890 0.094623 0.047961 0.068541 0.081340 0.089623 0.094334 0.047832 0.068340 0.081086 0.089329 0.094016 0.047689 0.068119 0.080807 0.089007 0.093668 0.047534 0.067879 0.080502 0.088656 0.093288 0.047366 0.067618 0.080172 0.088274 0.092875 0.047184 0.067335 0.079814 0.087861 0.092428 0.046988 0.067030 0.079427 0.087416 0.091946 0.046777 0.066701 0.079011 0.086936 0.091427 0.046550 0.066349 0.078564 0.086420 0.090869 0.046307 0.065970 0.078084 0.085866 0.090270 0.046047 0.065564 0.077570 0.085273 0.089629 0.045769 0.065130 0.077020 0.084639 0.088943 0.045471 0.064666 0.076431 0.083960 0.088210 0.045154 0.064169 0.075801 0.083234 0.087426 0.044815 0.063638 0.075128 0.082458 0.086589 0.044452 0.063071 0.074409 0.081630 0.085695 0.044065 0.062465 0.073640 0.080745 0.084740 0.043652 0.061816 0.072818 0.079799 0.083721 0.043210 0.061122 0.071938 0.078787 0.082632 0.042737 0.060379 0.070997 0.077706 0.081468 0.042231 0.059582 0.069988 0.076548 0.080222 0.041688 0.058727 0.068905 0.075307 0.078890 0.041104 0.057808 0.067743 0.073977 0.077462 0.040476 0.056817 0.066492 0.072547 0.075929 0.039799 0.055748 0.065143 0.071009 0.074283 0.039065 0.054590 0.063687 0.069351 0.072510 0.038269 0.053333 0.062109 0.067559 0.070598 0.037400 0.051964 0.060395 0.065618 0.068530 0.036449 0.050465 0.058526 0.063508 0.066286 0.035401 0.048817 0.056480 0.061206 0.063843 0.034237 0.046994 0.054228 0.058682 0.061170 0.032934 0.044963 0.051735 0.055900 0.058230 0.031459 0.042681 0.048954 0.052810 0.054973 0.029764 0.040087 0.045821 0.049346 0.051331 0.027781 0.037097 0.042245 0.045414 0.047207 0.025403 0.033582 0.038088 0.040869 0.042452 0.022444 0.029325 0.033116 0.035466 0.036815 0.018546 0.023908 0.026877 0.028727 0.029798 0.012793 0.016246 0.018177 0.019389 0.020099 