Variables="X","Y","Z","GAMMA"
ZONE T="WING" i=6,j=51,k=1, ZONETYPE=Ordered
DATAPACKING=BLOCK
VARLOCATION=([4]=CELLCENTERED)
0.000000 0.500000 1.000000 1.500000 2.000000 2.500000 0.000000 0.494000 0.988000 1.482000 1.976000 2.470000 0.000000 0.488000 0.976000 1.464000 1.952000 2.440000 0.000000 0.482000 0.964000 1.446000 1.928000 2.410000 0.000000 0.476000 0.952000 1.428000 1.904000 2.380000 0.000000 0.470000 0.940000 1.410000 1.880000 2.350000 0.000000 0.464000 0.928000 1.392000 1.856000 2.320000 0.000000 0.458000 0.916000 1.374000 1.832000 2.290000 0.000000 0.452000 0.904000 1.356000 1.808000 2.260000 0.000000 0.446000 0.892000 1.338000 1.784000 2.230000 0.000000 0.440000 0.880000 1.320000 1.760000 2.200000 0.000000 0.434000 0.868000 1.302000 1.736000 2.170000 0.000000 0.428000 0.856000 1.284000 1.712000 2.140000 0.000000 0.422000 0.844000 1.266000 1.688000 2.110000 0.000000 0.416000 0.832000 1.248000 1.664000 2.080000 0.000000 0.410000 0.820000 1.230000 1.640000 2.050000 0.000000 0.404000 0.808000 1.212000 1.616000 2.020000 0.000000 0.398000 0.796000 1.194000 1.592000 1.990000 0.000000 0.392000 0.784000 1.176000 1.568000 1.960000 0.000000 0.386000 0.772000 1.158000 1.544000 1.930000 0.000000 0.380000 0.760000 1.140000 1.520000 1.900000 0.000000 0.374000 0.748000 1.122000 1.496000 1.870000 0.000000 0.368000 0.736000 1.104000 1.472000 1.840000 0.000000 0.362000 0.724000 1.086000 1.448000 1.810000 0.000000 0.356000 0.712000 1.068000 1.424000 1.780000 0.000000 0.350000 0.700000 1.050000 1.400000 1.750000 0.000000 0.344000 0.688000 1.032000 1.376000 1.720000 0.000000 0.338000 0.676000 1.014000 1.352000 1.690000 0.000000 0.332000 0.664000 0.996000 1.328000 1.660000 0.000000 0.326000 0.652000 0.978000 1.304000 1.630000 0.000000 0.320000 0.640000 0.960000 1.280000 1.600000 0.000000 0.314000 0.628000 0.942000 1.256000 1.570000 0.000000 0.308000 0.616000 0.924000 1.232000 1.540000 0.000000 0.302000 0.604000 0.906000 1.208000 1.510000 0.000000 0.296000 0.592000 0.888000 1.184000 1.480000 0.000000 0.290000 0.580000 0.870000 1.160000 1.450000 0.000000 0.284000 0.568000 0.852000 1.136000 1.420000 0.000000 0.278000 0.556000 0.834000 1.112000 1.390000 0.000000 0.272000 0.544000 0.816000 1.088000 1.360000 0.000000 0.266000 0.532000 0.798000 1.064000 1.330000 0.000000 0.260000 0.520000 0.780000 1.040000 1.300000 0.000000 0.254000 0.508000 0.762000 1.016000 1.270000 0.000000 0.248000 0.496000 0.744000 0.992000 1.240000 0.000000 0.242000 0.484000 0.726000 0.968000 1.210000 0.000000 0.236000 0.472000 0.708000 0.944000 1.180000 0.000000 0.230000 0.460000 0.690000 0.920000 1.150000 0.000000 0.224000 0.448000 0.672000 0.896000 1.120000 0.000000 0.218000 0.436000 0.654000 0.872000 1.090000 0.000000 0.212000 0.424000 0.636000 0.848000 1.060000 0.000000 0.206000 0.412000 0.618000 0.824000 1.030000 0.000000 0.200000 0.400000 0.600000 0.800000 1.000000
0.000000 0.000000 0.000000 0.000000 0.000000 0.000000 0.145600 0.145600 0.145600 0.145600 0.145600 0.145600 0.291200 0.291200 0.291200 0.291200 0.291200 0.291200 0.436800 0.436800 0.436800 0.436800 0.436800 0.436800 0.582400 0.582400 0.582400 0.582400 0.582400 0.582400 0.728000 0.728000 0.728000 0.728000 0.728000 0.728000 0.873600 0.873600 0.873600 0.873600 0.873600 0.873600 1.019200 1.019200 1.019200 1.019200 1.019200 1.019200 1.164800 1.164800 1.164800 1.164800 1.164800 1.164800 1.310400 1.310400 1.310400 1.310400 1.310400 1.310400 1.456000 1.456000 1.456000 1.456000 1.456000 1.456000 1.601600 1.601600 1.601600 1.601600 1.601600 1.601600 1.747200 1.747200 1.747200 1.747200 1.747200 1.747200 1.892800 1.892800 1.892800 1.892800 1.892800 1.892800 2.038400 2.038400 2.038400 2.038400 2.038400 2.038400 2.184000 2.184000 2.184000 2.184000 2.184000 2.184000 2.329600 2.329600 2.329600 2.329600 2.329600 2.329600 2.475200 2.475200 2.475200 2.475200 2.475200 2.475200 2.620800 2.620800 2.620800 2.620800 2.620800 2.620800 2.766400 2.766400 2.766400 2.766400 2.766400 2.766400 2.912000 2.912000 2.912000 2.912000 2.912000 2.912000 3.057600 3.057600 3.057600 3.057600 3.057600 3.057600 3.203200 3.203200 3.203200 3.203200 3.203200 3.203200 3.348800 3.348800 3.348800 3.348800 3.348800 3.348800 3.494400 3.494400 3.494400 3.494400 3.494400 3.494400 3.640000 3.640000 3.640000 3.640000 3.640000 3.640000 3.785600 3.785600 3.785600 3.785600 3.785600 3.785600 3.931200 3.931200 3.931200 3.931200 3.931200 3.931200 4.076800 4.076800 4.076800 4.076800 4.076800 4.076800 4.222400 4.222400 4.222400 4.222400 4.222400 4.222400 4.368000 4.368000 4.368000 4.368000 4.368000 4.368000 4.513600 4.513600 4.513600 4.513600 4.513600 4.513600 4.659200 4.659200 4.659200 4.659200 4.659200 4.659200 4.804800 4.804800 4.804800 4.804800 4.804800 4.804800 4.950400 4.950400 4.950400 4.950400 4.950400 4.950400 5.096000 5.096000 5.096000 5.096000 5.096000 5.096000 5.241600 5.241600 5.241600 5.241600 5.241600 5.241600 5.387200 5.387200 5.387200 5.387200 5.387200 5.387200 5.532800 5.532800 5.532800 5.532800 5.532800 5.532800 5.678400 5.678400 5.678400 5.678400 5.678400 5.678400 5.824000 5.824000 5.824000 5.824000 5.824000 5.824000 5.969600 5.969600 5.969600 5.969600 5.969600 5.969600 6.115200 6.115200 6.115200 6.115200 6.115200 6.115200 6.260800 6.260800 6.260800 6.260800 6.260800 6.260800 6.406400 6.406400 6.406400 6.406400 6.406400 6.406400 6.552000 6.552000 6.552000 6.552000 6.552000 6.552000 6.697600 6.697600 6.697600 6.697600 6.697600 6.697600 6.843200 6.843200 6.843200 6.843200 6.843200 6.843200 6.988800 6.988800 6.988800 6.988800 6.988800 6.988800 7.134400 7.134400 7.134400 7.134400 7.134400 7.134400 7.280000 7.280000 7.280000 7.280000 7.280000 7.280000
0.000000 0.000000 0.000000 0.000000 0.000000 0.000000 0.000000 0.000000 0.000000 0.000000 0.000000 0.000000 0.000000 0.000000 0.000000 0.000000 0.000000 0.000000 0.000000 0.000000 0.000000 0.000000 0.000000 0.000000 0.000000 0.000000 0.000000 0.000000 0.000000 0.000000 0.000000 0.000000 0.000000 0.000000 0.000000 0.000000 0.000000 0.000000 0.000000 0.000000 0.000000 0.000000 0.000000 0.000000 0.000000 0.000000 0.000000 0.000000 0.000000 0.000000 0.000000 0.000000 0.000000 0.000000 0.000000 0.000000 0.000000 0.000000 0.000000 0.000000 0.000000 0.000000 0.000000 0.000000 0.000000 0.000000 0.000000 0.000000 0.000000 0.000000 0.000000 0.000000 0.000000 0.000000 0.000000 0.000000 0.000000 0.000000 0.000000 0.000000 0.000000 0.000000 0.000000 0.000000 0.000000 0.000000 0.000000 0.000000 0.000000 0.000000 0.000000 0.000000 0.000000 0.000000 0.000000 0.000000 0.000000 0.000000 0.000000 0.000000 0.000000 0.000000 0.000000 0.000000 0.000000 0.000000 0.000000 0.000000 0.000000 0.000000 0.000000 0.000000 0.000000 0.000000 0.000000 0.000000 0.000000 0.000000 0.000000 0.000000 0.000000 0.000000 0.000000 0.000000 0.000000 0.000000 0.000000 0.000000 0.000000 0.000000 0.000000 0.000000 0.000000 0.000000 0.000000 0.000000 0.000000 0.000000 0.000000 0.000000 0.000000 0.000000 0.000000 0.000000 0.000000 0.000000 0.000000 0.000000 0.000000 0.000000 0.000000 0.000000 0.000000 0.000000 0.000000 0.000000 0.000000 0.000000 0.000000 0.000000 0.000000 0.000000 0.000000 0.000000 0.000000 0.000000 0.000000 0.000000 0.000000 0.000000 0.000000 0.000000 0.000000 0.000000 0.000000 0.000000 0.000000 0.000000 0.000000 0.000000 0.000000 0.000000 0.000000 0.000000 0.000000 0.000000 0.000000 0.000000 0.000000 0.000000 0.000000 0.000000 0.000000 0.000000 0.000000 0.000000 0.000000 0.000000 0.000000 0.000000 0.000000 0.000000 0.000000 0.000000 0.000000 0.000000 0.000000 0.000000 0.000000 0.000000 0.000000 0.000000 0.000000 0.000000 0.000000 0.000000 0.000000 0.000000 0.000000 0.000000 0.000000 0.000000 0.000000 0.000000 0.000000 0.000000 0.000000 0.000000 0.000000 0.000000 0.000000 0.000000 0.000000 0.000000 0.000000 0.000000 0.000000 0.000000 0.000000 0.000000 0.000000 0.000000 0.000000 0.000000 0.000000 0.000000 0.000000 0.000000 0.000000 0.000000 0.000000 0.000000 0.000000 0.000000 0.000000 0.000000 0.000000 0.000000 0.000000 0.000000 0.000000 0.000000 0.000000 0.000000 0.000000 0.000000 0.000000 0.000000 0.000000 0.000000 0.000000 0.000000 0.000000 0.000000 0.000000 0.000000 0.000000 0.000000 0.000000 0.000000 0.000000 0.000000 0.000000 0.000000 0.000000 0.000000 0.000000 0.000000 0.000000 0.000000 0.000000 0.000000 0.000000 0.000000 0.000000 0.000000 0.000000 0.000000 0.000000 0.000000 0.000000 0.000000 0.000000 0.000000 0.000000 0.000000
0.124598 0.178517 0.212048 0.233502 0.245336 0.124163 0.177882 0.211356 0.232854 0.244822 0.123569 0.177050 0.210441 0.231965 0.244037 0.122877 0.176099 0.209385 0.230908 0.243047 0.122111 0.175051 0.208213 0.229710 0.241884 0.121284 0.173920 0.206936 0.228385 0.240569 0.120404 0.172711 0.205563 0.226944 0.239117 0.119475 0.171430 0.204099 0.225393 0.237539 0.118502 0.170082 0.202550 0.223740 0.235846 0.117487 0.168671 0.200919 0.221991 0.234044 0.116433 0.167198 0.199211 0.220150 0.232140 0.115341 0.165667 0.197429 0.218222 0.230139 0.114213 0.164081 0.195576 0.216211 0.228047 0.113049 0.162440 0.193655 0.214120 0.225867 0.111852 0.160748 0.191667 0.211952 0.223603 0.110622 0.159004 0.189616 0.209710 0.221258 0.109360 0.157211 0.187501 0.207395 0.218834 0.108065 0.155370 0.185326 0.205010 0.216333 0.106740 0.153480 0.183092 0.202555 0.213758 0.105384 0.151544 0.180798 0.200033 0.211109 0.103997 0.149562 0.178446 0.197444 0.208387 0.102580 0.147533 0.176035 0.194788 0.205593 0.101133 0.145457 0.173567 0.192066 0.202727 0.099654 0.143335 0.171041 0.189277 0.199788 0.098145 0.141166 0.168455 0.186420 0.196777 0.096604 0.138949 0.165810 0.183494 0.193692 0.095030 0.136682 0.163103 0.180498 0.190530 0.093423 0.134364 0.160332 0.177430 0.187291 0.091781 0.131994 0.157495 0.174285 0.183970 0.090102 0.129567 0.154590 0.171062 0.180563 0.088385 0.127083 0.151610 0.167754 0.177066 0.086627 0.124535 0.148553 0.164357 0.173473 0.084825 0.121920 0.145411 0.160864 0.169775 0.082975 0.119232 0.142177 0.157265 0.165964 0.081072 0.116463 0.138842 0.153550 0.162028 0.079112 0.113605 0.135395 0.149706 0.157953 0.077086 0.110646 0.131820 0.145716 0.153721 0.074986 0.107572 0.128101 0.141560 0.149310 0.072801 0.104365 0.124215 0.137212 0.144692 0.070516 0.101004 0.120132 0.132638 0.139831 0.068114 0.097457 0.115815 0.127795 0.134681 0.065570 0.093687 0.111214 0.122626 0.129181 0.062851 0.089640 0.106261 0.117055 0.123249 0.059910 0.085241 0.100863 0.110975 0.116774 0.056681 0.080381 0.094883 0.104234 0.109595 0.053060 0.074896 0.088118 0.096607 0.101477 0.048876 0.068514 0.080243 0.087741 0.092053 0.043811 0.060749 0.070690 0.077028 0.080698 0.037168 0.050599 0.058334 0.063279 0.066188 0.026876 0.035392 0.040270 0.043435 0.045361 