Variables="X","Y","Z","GAMMA"
ZONE T="WING" i=6,j=51,k=1, ZONETYPE=Ordered
DATAPACKING=BLOCK
VARLOCATION=([4]=CELLCENTERED)
0.000000 0.200000 0.400000 0.600000 0.800000 1.000000 0.000000 0.200000 0.400000 0.600000 0.800000 1.000000 0.000000 0.200000 0.400000 0.600000 0.800000 1.000000 0.000000 0.200000 0.400000 0.600000 0.800000 1.000000 0.000000 0.200000 0.400000 0.600000 0.800000 1.000000 0.000000 0.200000 0.400000 0.600000 0.800000 1.000000 0.000000 0.200000 0.400000 0.600000 0.800000 1.000000 0.000000 0.200000 0.400000 0.600000 0.800000 1.000000 0.000000 0.200000 0.400000 0.600000 0.800000 1.000000 0.000000 0.200000 0.400000 0.600000 0.800000 1.000000 0.000000 0.200000 0.400000 0.600000 0.800000 1.000000 0.000000 0.200000 0.400000 0.600000 0.800000 1.000000 0.000000 0.200000 0.400000 0.600000 0.800000 1.000000 0.000000 0.200000 0.400000 0.600000 0.800000 1.000000 0.000000 0.200000 0.400000 0.600000 0.800000 1.000000 0.000000 0.200000 0.400000 0.600000 0.800000 1.000000 0.000000 0.200000 0.400000 0.600000 0.800000 1.000000 0.000000 0.200000 0.400000 0.600000 0.800000 1.000000 0.000000 0.200000 0.400000 0.600000 0.800000 1.000000 0.000000 0.200000 0.400000 0.600000 0.800000 1.000000 0.000000 0.200000 0.400000 0.600000 0.800000 1.000000 0.000000 0.200000 0.400000 0.600000 0.800000 1.000000 0.000000 0.200000 0.400000 0.600000 0.800000 1.000000 0.000000 0.200000 0.400000 0.600000 0.800000 1.000000 0.000000 0.200000 0.400000 0.600000 0.800000 1.000000 0.000000 0.200000 0.400000 0.600000 0.800000 1.000000 0.000000 0.200000 0.400000 0.600000 0.800000 1.000000 0.000000 0.200000 0.400000 0.600000 0.800000 1.000000 0.000000 0.200000 0.400000 0.600000 0.800000 1.000000 0.000000 0.200000 0.400000 0.600000 0.800000 1.000000 0.000000 0.200000 0.400000 0.600000 0.800000 1.000000 0.000000 0.200000 0.400000 0.600000 0.800000 1.000000 0.000000 0.200000 0.400000 0.600000 0.800000 1.000000 0.000000 0.200000 0.400000 0.600000 0.800000 1.000000 0.000000 0.200000 0.400000 0.600000 0.800000 1.000000 0.000000 0.200000 0.400000 0.600000 0.800000 1.000000 0.000000 0.200000 0.400000 0.600000 0.800000 1.000000 0.000000 0.200000 0.400000 0.600000 0.800000 1.000000 0.000000 0.200000 0.400000 0.600000 0.800000 1.000000 0.000000 0.200000 0.400000 0.600000 0.800000 1.000000 0.000000 0.200000 0.400000 0.600000 0.800000 1.000000 0.000000 0.200000 0.400000 0.600000 0.800000 1.000000 0.000000 0.200000 0.400000 0.600000 0.800000 1.000000 0.000000 0.200000 0.400000 0.600000 0.800000 1.000000 0.000000 0.200000 0.400000 0.600000 0.800000 1.000000 0.000000 0.200000 0.400000 0.600000 0.800000 1.000000 0.000000 0.200000 0.400000 0.600000 0.800000 1.000000 0.000000 0.200000 0.400000 0.600000 0.800000 1.000000 0.000000 0.200000 0.400000 0.600000 0.800000 1.000000 0.000000 0.200000 0.400000 0.600000 0.800000 1.000000 0.000000 0.200000 0.400000 0.600000 0.800000 1.000000
0.000000 0.000000 0.000000 0.000000 0.000000 0.000000 0.145600 0.145600 0.145600 0.145600 0.145600 0.145600 0.291200 0.291200 0.291200 0.291200 0.291200 0.291200 0.436800 0.436800 0.436800 0.436800 0.436800 0.436800 0.582400 0.582400 0.582400 0.582400 0.582400 0.582400 0.728000 0.728000 0.728000 0.728000 0.728000 0.728000 0.873600 0.873600 0.873600 0.873600 0.873600 0.873600 1.019200 1.019200 1.019200 1.019200 1.019200 1.019200 1.164800 1.164800 1.164800 1.164800 1.164800 1.164800 1.310400 1.310400 1.310400 1.310400 1.310400 1.310400 1.456000 1.456000 1.456000 1.456000 1.456000 1.456000 1.601600 1.601600 1.601600 1.601600 1.601600 1.601600 1.747200 1.747200 1.747200 1.747200 1.747200 1.747200 1.892800 1.892800 1.892800 1.892800 1.892800 1.892800 2.038400 2.038400 2.038400 2.038400 2.038400 2.038400 2.184000 2.184000 2.184000 2.184000 2.184000 2.184000 2.329600 2.329600 2.329600 2.329600 2.329600 2.329600 2.475200 2.475200 2.475200 2.475200 2.475200 2.475200 2.620800 2.620800 2.620800 2.620800 2.620800 2.620800 2.766400 2.766400 2.766400 2.766400 2.766400 2.766400 2.912000 2.912000 2.912000 2.912000 2.912000 2.912000 3.057600 3.057600 3.057600 3.057600 3.057600 3.057600 3.203200 3.203200 3.203200 3.203200 3.203200 3.203200 3.348800 3.348800 3.348800 3.348800 3.348800 3.348800 3.494400 3.494400 3.494400 3.494400 3.494400 3.494400 3.640000 3.640000 3.640000 3.640000 3.640000 3.640000 3.785600 3.785600 3.785600 3.785600 3.785600 3.785600 3.931200 3.931200 3.931200 3.931200 3.931200 3.931200 4.076800 4.076800 4.076800 4.076800 4.076800 4.076800 4.222400 4.222400 4.222400 4.222400 4.222400 4.222400 4.368000 4.368000 4.368000 4.368000 4.368000 4.368000 4.513600 4.513600 4.513600 4.513600 4.513600 4.513600 4.659200 4.659200 4.659200 4.659200 4.659200 4.659200 4.804800 4.804800 4.804800 4.804800 4.804800 4.804800 4.950400 4.950400 4.950400 4.950400 4.950400 4.950400 5.096000 5.096000 5.096000 5.096000 5.096000 5.096000 5.241600 5.241600 5.241600 5.241600 5.241600 5.241600 5.387200 5.387200 5.387200 5.387200 5.387200 5.387200 5.532800 5.532800 5.532800 5.532800 5.532800 5.532800 5.678400 5.678400 5.678400 5.678400 5.678400 5.678400 5.824000 5.824000 5.824000 5.824000 5.824000 5.824000 5.969600 5.969600 5.969600 5.969600 5.969600 5.969600 6.115200 6.115200 6.115200 6.115200 6.115200 6.115200 6.260800 6.260800 6.260800 6.260800 6.260800 6.260800 6.406400 6.406400 6.406400 6.406400 6.406400 6.406400 6.552000 6.552000 6.552000 6.552000 6.552000 6.552000 6.697600 6.697600 6.697600 6.697600 6.697600 6.697600 6.843200 6.843200 6.843200 6.843200 6.843200 6.843200 6.988800 6.988800 6.988800 6.988800 6.988800 6.988800 7.134400 7.134400 7.134400 7.134400 7.134400 7.134400 7.280000 7.280000 7.280000 7.280000 7.280000 7.280000
0.000000 0.000000 0.000000 0.000000 0.000000 0.000000 0.000000 0.000000 0.000000 0.000000 0.000000 0.000000 0.000000 0.000000 0.000000 0.000000 0.000000 0.000000 0.000000 0.000000 0.000000 0.000000 0.000000 0.000000 0.000000 0.000000 0.000000 0.000000 0.000000 0.000000 0.000000 0.000000 0.000000 0.000000 0.000000 0.000000 0.000000 0.000000 0.000000 0.000000 0.000000 0.000000 0.000000 0.000000 0.000000 0.000000 0.000000 0.000000 0.000000 0.000000 0.000000 0.000000 0.000000 0.000000 0.000000 0.000000 0.000000 0.000000 0.000000 0.000000 0.000000 0.000000 0.000000 0.000000 0.000000 0.000000 0.000000 0.000000 0.000000 0.000000 0.000000 0.000000 0.000000 0.000000 0.000000 0.000000 0.000000 0.000000 0.000000 0.000000 0.000000 0.000000 0.000000 0.000000 0.000000 0.000000 0.000000 0.000000 0.000000 0.000000 0.000000 0.000000 0.000000 0.000000 0.000000 0.000000 0.000000 0.000000 0.000000 0.000000 0.000000 0.000000 0.000000 0.000000 0.000000 0.000000 0.000000 0.000000 0.000000 0.000000 0.000000 0.000000 0.000000 0.000000 0.000000 0.000000 0.000000 0.000000 0.000000 0.000000 0.000000 0.000000 0.000000 0.000000 0.000000 0.000000 0.000000 0.000000 0.000000 0.000000 0.000000 0.000000 0.000000 0.000000 0.000000 0.000000 0.000000 0.000000 0.000000 0.000000 0.000000 0.000000 0.000000 0.000000 0.000000 0.000000 0.000000 0.000000 0.000000 0.000000 0.000000 0.000000 0.000000 0.000000 0.000000 0.000000 0.000000 0.000000 0.000000 0.000000 0.000000 0.000000 0.000000 0.000000 0.000000 0.000000 0.000000 0.000000 0.000000 0.000000 0.000000 0.000000 0.000000 0.000000 0.000000 0.000000 0.000000 0.000000 0.000000 0.000000 0.000000 0.000000 0.000000 0.000000 0.000000 0.000000 0.000000 0.000000 0.000000 0.000000 0.000000 0.000000 0.000000 0.000000 0.000000 0.000000 0.000000 0.000000 0.000000 0.000000 0.000000 0.000000 0.000000 0.000000 0.000000 0.000000 0.000000 0.000000 0.000000 0.000000 0.000000 0.000000 0.000000 0.000000 0.000000 0.000000 0.000000 0.000000 0.000000 0.000000 0.000000 0.000000 0.000000 0.000000 0.000000 0.000000 0.000000 0.000000 0.000000 0.000000 0.000000 0.000000 0.000000 0.000000 0.000000 0.000000 0.000000 0.000000 0.000000 0.000000 0.000000 0.000000 0.000000 0.000000 0.000000 0.000000 0.000000 0.000000 0.000000 0.000000 0.000000 0.000000 0.000000 0.000000 0.000000 0.000000 0.000000 0.000000 0.000000 0.000000 0.000000 0.000000 0.000000 0.000000 0.000000 0.000000 0.000000 0.000000 0.000000 0.000000 0.000000 0.000000 0.000000 0.000000 0.000000 0.000000 0.000000 0.000000 0.000000 0.000000 0.000000 0.000000 0.000000 0.000000 0.000000 0.000000 0.000000 0.000000 0.000000 0.000000 0.000000 0.000000 0.000000 0.000000 0.000000 0.000000 0.000000 0.000000 0.000000 0.000000 0.000000 0.000000 0.000000 0.000000 0.000000 0.000000
0.062214 0.089815 0.107529 0.119319 0.126186 0.062209 0.089808 0.107521 0.119310 0.126176 0.062200 0.089795 0.107504 0.119291 0.126156 0.062186 0.089774 0.107479 0.119262 0.126125 0.062167 0.089746 0.107445 0.119224 0.126084 0.062143 0.089711 0.107402 0.119176 0.126033 0.062114 0.089669 0.107350 0.119118 0.125971 0.062080 0.089619 0.107289 0.119049 0.125898 0.062041 0.089561 0.107219 0.118970 0.125813 0.061997 0.089495 0.107139 0.118879 0.125716 0.061946 0.089421 0.107048 0.118777 0.125607 0.061890 0.089338 0.106946 0.118663 0.125484 0.061828 0.089245 0.106834 0.118535 0.125348 0.061759 0.089143 0.106709 0.118394 0.125198 0.061682 0.089031 0.106571 0.118239 0.125032 0.061599 0.088907 0.106420 0.118069 0.124849 0.061507 0.088772 0.106255 0.117882 0.124650 0.061408 0.088624 0.106074 0.117678 0.124431 0.061299 0.088463 0.105876 0.117455 0.124192 0.061180 0.088287 0.105661 0.117211 0.123932 0.061051 0.088095 0.105426 0.116946 0.123648 0.060910 0.087886 0.105170 0.116657 0.123338 0.060757 0.087659 0.104891 0.116341 0.123000 0.060590 0.087411 0.104587 0.115997 0.122632 0.060409 0.087141 0.104256 0.115622 0.122229 0.060211 0.086846 0.103893 0.115212 0.121789 0.059995 0.086524 0.103497 0.114763 0.121308 0.059758 0.086172 0.103064 0.114271 0.120781 0.059500 0.085786 0.102588 0.113732 0.120202 0.059217 0.085362 0.102066 0.113139 0.119565 0.058906 0.084896 0.101491 0.112485 0.118863 0.058563 0.084382 0.100856 0.111763 0.118087 0.058184 0.083814 0.100153 0.110963 0.117227 0.057766 0.083184 0.099373 0.110074 0.116270 0.057300 0.082483 0.098503 0.109082 0.115203 0.056781 0.081699 0.097529 0.107971 0.114006 0.056201 0.080820 0.096436 0.106721 0.112660 0.055548 0.079830 0.095201 0.105309 0.111137 0.054810 0.078707 0.093799 0.103703 0.109405 0.053970 0.077426 0.092196 0.101866 0.107423 0.053009 0.075955 0.090352 0.099749 0.105138 0.051900 0.074251 0.088210 0.097289 0.102482 0.050608 0.072257 0.085700 0.094403 0.099366 0.049084 0.069895 0.082720 0.090977 0.095670 0.047258 0.067052 0.079130 0.086853 0.091226 0.045026 0.063560 0.074721 0.081800 0.085794 0.042217 0.059148 0.069165 0.075462 0.079005 0.038519 0.053336 0.061906 0.067248 0.070255 0.033255 0.045150 0.051858 0.056024 0.058386 0.024449 0.032050 0.036289 0.038945 0.040485 