Variables="X","Y","Z","GAMMA"
ZONE T="WING" i=6,j=51,k=1, ZONETYPE=Ordered
DATAPACKING=BLOCK
VARLOCATION=([4]=CELLCENTERED)
0.000000 2000000.000000 4000000.000000 6000000.000000 8000000.000000 10000000.000000 0.000000 1960000.004000 3920000.008000 5880000.012000 7840000.016000 9800000.020000 0.000000 1920000.008000 3840000.016000 5760000.024000 7680000.032000 9600000.040000 0.000000 1880000.012000 3760000.024000 5640000.036000 7520000.048000 9400000.060000 0.000000 1840000.016000 3680000.032000 5520000.048000 7360000.064000 9200000.080000 0.000000 1800000.020000 3600000.040000 5400000.060000 7200000.080000 9000000.100000 0.000000 1760000.024000 3520000.048000 5280000.072000 7040000.096000 8800000.120000 0.000000 1720000.028000 3440000.056000 5160000.084000 6880000.112000 8600000.140000 0.000000 1680000.032000 3360000.064000 5040000.096000 6720000.128000 8400000.160000 0.000000 1640000.036000 3280000.072000 4920000.108000 6560000.144000 8200000.180000 0.000000 1600000.040000 3200000.080000 4800000.120000 6400000.160000 8000000.200000 0.000000 1560000.044000 3120000.088000 4680000.132000 6240000.176000 7800000.220000 0.000000 1520000.048000 3040000.096000 4560000.144000 6080000.192000 7600000.240000 0.000000 1480000.052000 2960000.104000 4440000.156000 5920000.208000 7400000.260000 0.000000 1440000.056000 2880000.112000 4320000.168000 5760000.224000 7200000.280000 0.000000 1400000.060000 2800000.120000 4200000.180000 5600000.240000 7000000.300000 0.000000 1360000.064000 2720000.128000 4080000.192000 5440000.256000 6800000.320000 0.000000 1320000.068000 2640000.136000 3960000.204000 5280000.272000 6600000.340000 0.000000 1280000.072000 2560000.144000 3840000.216000 5120000.288000 6400000.360000 0.000000 1240000.076000 2480000.152000 3720000.228000 4960000.304000 6200000.380000 0.000000 1200000.080000 2400000.160000 3600000.240000 4800000.320000 6000000.400000 0.000000 1160000.084000 2320000.168000 3480000.252000 4640000.336000 5800000.420000 0.000000 1120000.088000 2240000.176000 3360000.264000 4480000.352000 5600000.440000 0.000000 1080000.092000 2160000.184000 3240000.276000 4320000.368000 5400000.460000 0.000000 1040000.096000 2080000.192000 3120000.288000 4160000.384000 5200000.480000 0.000000 1000000.100000 2000000.200000 3000000.300000 4000000.400000 5000000.500000 0.000000 960000.104000 1920000.208000 2880000.312000 3840000.416000 4800000.520000 0.000000 920000.108000 1840000.216000 2760000.324000 3680000.432000 4600000.540000 0.000000 880000.112000 1760000.224000 2640000.336000 3520000.448000 4400000.560000 0.000000 840000.116000 1680000.232000 2520000.348000 3360000.464000 4200000.580000 0.000000 800000.120000 1600000.240000 2400000.360000 3200000.480000 4000000.600000 0.000000 760000.124000 1520000.248000 2280000.372000 3040000.496000 3800000.620000 0.000000 720000.128000 1440000.256000 2160000.384000 2880000.512000 3600000.640000 0.000000 680000.132000 1360000.264000 2040000.396000 2720000.528000 3400000.660000 0.000000 640000.136000 1280000.272000 1920000.408000 2560000.544000 3200000.680000 0.000000 600000.140000 1200000.280000 1800000.420000 2400000.560000 3000000.700000 0.000000 560000.144000 1120000.288000 1680000.432000 2240000.576000 2800000.720000 0.000000 520000.148000 1040000.296000 1560000.444000 2080000.592000 2600000.740000 0.000000 480000.152000 960000.304000 1440000.456000 1920000.608000 2400000.760000 0.000000 440000.156000 880000.312000 1320000.468000 1760000.624000 2200000.780000 0.000000 400000.160000 800000.320000 1200000.480000 1600000.640000 2000000.800000 0.000000 360000.164000 720000.328000 1080000.492000 1440000.656000 1800000.820000 0.000000 320000.168000 640000.336000 960000.504000 1280000.672000 1600000.840000 0.000000 280000.172000 560000.344000 840000.516000 1120000.688000 1400000.860000 0.000000 240000.176000 480000.352000 720000.528000 960000.704000 1200000.880000 0.000000 200000.180000 400000.360000 600000.540000 800000.720000 1000000.900000 0.000000 160000.184000 320000.368000 480000.552000 640000.736000 800000.920000 0.000000 120000.188000 240000.376000 360000.564000 480000.752000 600000.940000 0.000000 80000.192000 160000.384000 240000.576000 320000.768000 400000.960000 0.000000 40000.196000 80000.392000 120000.588000 160000.784000 200000.980000 0.000000 0.200000 0.400000 0.600000 0.800000 1.000000
0.000000 0.000000 0.000000 0.000000 0.000000 0.000000 0.145600 0.145600 0.145600 0.145600 0.145600 0.145600 0.291200 0.291200 0.291200 0.291200 0.291200 0.291200 0.436800 0.436800 0.436800 0.436800 0.436800 0.436800 0.582400 0.582400 0.582400 0.582400 0.582400 0.582400 0.728000 0.728000 0.728000 0.728000 0.728000 0.728000 0.873600 0.873600 0.873600 0.873600 0.873600 0.873600 1.019200 1.019200 1.019200 1.019200 1.019200 1.019200 1.164800 1.164800 1.164800 1.164800 1.164800 1.164800 1.310400 1.310400 1.310400 1.310400 1.310400 1.310400 1.456000 1.456000 1.456000 1.456000 1.456000 1.456000 1.601600 1.601600 1.601600 1.601600 1.601600 1.601600 1.747200 1.747200 1.747200 1.747200 1.747200 1.747200 1.892800 1.892800 1.892800 1.892800 1.892800 1.892800 2.038400 2.038400 2.038400 2.038400 2.038400 2.038400 2.184000 2.184000 2.184000 2.184000 2.184000 2.184000 2.329600 2.329600 2.329600 2.329600 2.329600 2.329600 2.475200 2.475200 2.475200 2.475200 2.475200 2.475200 2.620800 2.620800 2.620800 2.620800 2.620800 2.620800 2.766400 2.766400 2.766400 2.766400 2.766400 2.766400 2.912000 2.912000 2.912000 2.912000 2.912000 2.912000 3.057600 3.057600 3.057600 3.057600 3.057600 3.057600 3.203200 3.203200 3.203200 3.203200 3.203200 3.203200 3.348800 3.348800 3.348800 3.348800 3.348800 3.348800 3.494400 3.494400 3.494400 3.494400 3.494400 3.494400 3.640000 3.640000 3.640000 3.640000 3.640000 3.640000 3.785600 3.785600 3.785600 3.785600 3.785600 3.785600 3.931200 3.931200 3.931200 3.931200 3.931200 3.931200 4.076800 4.076800 4.076800 4.076800 4.076800 4.076800 4.222400 4.222400 4.222400 4.222400 4.222400 4.222400 4.368000 4.368000 4.368000 4.368000 4.368000 4.368000 4.513600 4.513600 4.513600 4.513600 4.513600 4.513600 4.659200 4.659200 4.659200 4.659200 4.659200 4.659200 4.804800 4.804800 4.804800 4.804800 4.804800 4.804800 4.950400 4.950400 4.950400 4.950400 4.950400 4.950400 5.096000 5.096000 5.096000 5.096000 5.096000 5.096000 5.241600 5.241600 5.241600 5.241600 5.241600 5.241600 5.387200 5.387200 5.387200 5.387200 5.387200 5.387200 5.532800 5.532800 5.532800 5.532800 5.532800 5.532800 5.678400 5.678400 5.678400 5.678400 5.678400 5.678400 5.824000 5.824000 5.824000 5.824000 5.824000 5.824000 5.969600 5.969600 5.969600 5.969600 5.969600 5.969600 6.115200 6.115200 6.115200 6.115200 6.115200 6.115200 6.260800 6.260800 6.260800 6.260800 6.260800 6.260800 6.406400 6.406400 6.406400 6.406400 6.406400 6.406400 6.552000 6.552000 6.552000 6.552000 6.552000 6.552000 6.697600 6.697600 6.697600 6.697600 6.697600 6.697600 6.843200 6.843200 6.843200 6.843200 6.843200 6.843200 6.988800 6.988800 6.988800 6.988800 6.988800 6.988800 7.134400 7.134400 7.134400 7.134400 7.134400 7.134400 7.280000 7.280000 7.280000 7.280000 7.280000 7.280000
0.000000 0.000000 0.000000 0.000000 0.000000 0.000000 0.000000 0.000000 0.000000 0.000000 0.000000 0.000000 0.000000 0.000000 0.000000 0.000000 0.000000 0.000000 0.000000 0.000000 0.000000 0.000000 0.000000 0.000000 0.000000 0.000000 0.000000 0.000000 0.000000 0.000000 0.000000 0.000000 0.000000 0.000000 0.000000 0.000000 0.000000 0.000000 0.000000 0.000000 0.000000 0.000000 0.000000 0.000000 0.000000 0.000000 0.000000 0.000000 0.000000 0.000000 0.000000 0.000000 0.000000 0.000000 0.000000 0.000000 0.000000 0.000000 0.000000 0.000000 0.000000 0.000000 0.000000 0.000000 0.000000 0.000000 0.000000 0.000000 0.000000 0.000000 0.000000 0.000000 0.000000 0.000000 0.000000 0.000000 0.000000 0.000000 0.000000 0.000000 0.000000 0.000000 0.000000 0.000000 0.000000 0.000000 0.000000 0.000000 0.000000 0.000000 0.000000 0.000000 0.000000 0.000000 0.000000 0.000000 0.000000 0.000000 0.000000 0.000000 0.000000 0.000000 0.000000 0.000000 0.000000 0.000000 0.000000 0.000000 0.000000 0.000000 0.000000 0.000000 0.000000 0.000000 0.000000 0.000000 0.000000 0.000000 0.000000 0.000000 0.000000 0.000000 0.000000 0.000000 0.000000 0.000000 0.000000 0.000000 0.000000 0.000000 0.000000 0.000000 0.000000 0.000000 0.000000 0.000000 0.000000 0.000000 0.000000 0.000000 0.000000 0.000000 0.000000 0.000000 0.000000 0.000000 0.000000 0.000000 0.000000 0.000000 0.000000 0.000000 0.000000 0.000000 0.000000 0.000000 0.000000 0.000000 0.000000 0.000000 0.000000 0.000000 0.000000 0.000000 0.000000 0.000000 0.000000 0.000000 0.000000 0.000000 0.000000 0.000000 0.000000 0.000000 0.000000 0.000000 0.000000 0.000000 0.000000 0.000000 0.000000 0.000000 0.000000 0.000000 0.000000 0.000000 0.000000 0.000000 0.000000 0.000000 0.000000 0.000000 0.000000 0.000000 0.000000 0.000000 0.000000 0.000000 0.000000 0.000000 0.000000 0.000000 0.000000 0.000000 0.000000 0.000000 0.000000 0.000000 0.000000 0.000000 0.000000 0.000000 0.000000 0.000000 0.000000 0.000000 0.000000 0.000000 0.000000 0.000000 0.000000 0.000000 0.000000 0.000000 0.000000 0.000000 0.000000 0.000000 0.000000 0.000000 0.000000 0.000000 0.000000 0.000000 0.000000 0.000000 0.000000 0.000000 0.000000 0.000000 0.000000 0.000000 0.000000 0.000000 0.000000 0.000000 0.000000 0.000000 0.000000 0.000000 0.000000 0.000000 0.000000 0.000000 0.000000 0.000000 0.000000 0.000000 0.000000 0.000000 0.000000 0.000000 0.000000 0.000000 0.000000 0.000000 0.000000 0.000000 0.000000 0.000000 0.000000 0.000000 0.000000 0.000000 0.000000 0.000000 0.000000 0.000000 0.000000 0.000000 0.000000 0.000000 0.000000 0.000000 0.000000 0.000000 0.000000 0.000000 0.000000 0.000000 0.000000 0.000000 0.000000 0.000000 0.000000 0.000000 0.000000 0.000000 0.000000 0.000000 0.000000 0.000000 0.000000 0.000000 0.000000 0.000000
791469.550860 791470.727065 791471.334664 791471.693678 791471.882736 791469.549035 791470.723113 791471.329376 791471.687781 791471.878031 791469.545818 791470.716499 791471.320193 791471.679398 791471.870278 791469.541348 791470.706954 791471.309155 791471.667437 791471.859998 791469.535687 791470.696622 791471.295132 791471.652879 791471.847470 791469.528848 791470.684828 791471.279655 791471.636556 791471.833450 791469.520802 791470.671261 791471.261233 791471.616369 791471.813456 791469.511480 791470.655010 791471.241308 791471.592060 791471.791410 791469.500735 791470.638210 791471.218101 791471.564910 791471.767988 791469.488227 791470.619797 791471.192804 791471.535391 791471.743341 791469.472345 791470.598585 791471.162350 791471.504781 791471.717530 791469.457726 791470.576859 791471.129374 791471.473536 791471.690624 791469.442772 791470.553368 791471.094156 791471.442594 791471.662276 791469.427108 791470.526740 791471.058922 791471.409832 791471.632526 791469.410514 791470.499397 791471.022081 791471.376260 791471.601702 791469.392805 791470.469906 791470.985496 791471.342645 791471.571605 791469.373788 791470.437215 791470.947341 791471.306504 791471.536785 791469.353216 791470.398229 791470.909445 791471.268781 791471.498469 791469.330716 791470.357977 791470.869874 791471.230716 791471.457711 791469.305543 791470.316170 791470.830521 791471.189174 791471.415062 791469.274430 791470.271719 791470.789355 791471.145234 791471.370779 791469.246528 791470.227849 791470.747956 791471.099217 791471.325145 791469.218673 791470.183194 791470.703940 791471.052045 791471.278516 791469.190116 791470.136256 791470.659609 791471.001072 791471.230286 791469.160425 791470.090275 791470.611928 791470.948419 791471.181048 791469.129240 791470.043886 791470.563716 791470.896265 791471.134364 791469.096185 791469.996457 791470.511471 791470.840580 791471.079489 791469.060801 791469.946420 791470.458516 791470.783351 791471.019644 791469.022417 791469.897169 791470.400813 791470.726730 791470.955195 791468.979799 791469.847063 791470.342044 791470.665783 791470.887283 791468.927952 791469.794234 791470.277206 791470.601348 791470.816943 791468.879989 791469.741889 791470.211082 791470.534060 791470.744985 791468.831199 791469.688185 791470.139760 791470.466951 791470.671715 791468.780263 791469.631085 791470.068741 791470.391448 791470.598222 791468.726237 791469.572847 791469.993047 791470.310801 791470.523094 791468.668134 791469.511217 791469.918582 791470.229684 791470.455005 791468.604729 791469.443851 791469.839713 791470.136812 791470.366458 791468.534311 791469.364236 791469.762347 791470.039308 791470.264724 791468.454066 791469.282728 791469.680322 791469.945063 791470.152374 791468.358651 791469.191674 791469.598958 791469.840936 791470.031681 791468.226627 791469.077722 791469.510207 791469.733977 791469.906060 791468.110772 791468.964027 791469.413643 791469.628804 791469.778667 791467.992235 791468.837134 791469.290112 791469.531197 791469.653227 791467.864943 791468.676344 791469.153994 791469.419733 791469.534213 791467.723667 791468.517776 791468.962420 791469.274019 791469.426171 791467.560789 791468.344254 791468.756171 791469.105336 791469.343593 791467.359848 791468.119040 791468.472139 791468.787895 791469.090357 791467.086816 791467.692429 791468.221171 791468.405179 791468.649519 791466.633255 791467.291627 791467.597856 791468.045272 791468.162575 791465.458619 791466.641837 791466.911945 791467.012140 791467.053411 